Q-Chem Developer Version!
                  Welcome to Q-Chem
     A Quantum Leap Into The Future Of Chemistry


 Q-Chem 5.1, Q-Chem, Inc., Pleasanton, CA (2018)

 Yihan Shao,  Zhengting Gan,  E. Epifanovsky,  A. T. B. Gilbert,  M. Wormit,  
 J. Kussmann,  A. W. Lange,  A. Behn,  Jia Deng,  Xintian Feng,  D. Ghosh,  
 M. Goldey,  P. R. Horn,  L. D. Jacobson,  I. Kaliman,  T. Kus,  A. Landau,  
 Jie Liu,  E. I. Proynov,  R. M. Richard,  R. P. Steele,  E. J. Sundstrom,  
 H. L. Woodcock III,  P. M. Zimmerman,  D. Zuev,  B. Albrecht,  E. Alguire,  
 S. A. Baeppler,  D. Barton,  Z. Benda,  Y. A. Bernard,  E. J. Berquist,  
 K. B. Bravaya,  H. Burton,  D. Casanova,  Chun-Min Chang,  Yunqing Chen,  
 A. Chien,  K. D. Closser,  M. P. Coons,  S. Coriani,  S. Dasgupta,  
 A. L. Dempwolff,  M. Diedenhofen,  Hainam Do,  R. G. Edgar,  Po-Tung Fang,  
 S. Faraji,  S. Fatehi,  Qingguo Feng,  K. D. Fenk,  J. Fosso-Tande,  
 Qinghui Ge,  A. Ghysels,  G. Gidofalvi,  J. Gomes,  J. Gonthier,  A. Gunina,  
 D. Hait,  M. W. D. Hanson-Heine,  P. H. P. Harbach,  A. W. Hauser,  
 J. E. Herr,  E. G. Hohenstein,  Z. C. Holden,  Kerwin Hui,  B. C. Huynh,  
 T.-C. Jagau,  Hyunjun Ji,  B. Kaduk,  K. Khistyaev,  Jaehoon Kim,  
 P. Klunzinger,  K. Koh,  D. Kosenkov,  L. Koulias,  T. Kowalczyk,  
 C. M. Krauter,  A. Kunitsa,  Ka Un Lao,  A. Laurent,  K. V. Lawler,  
 Joonho Lee,  D. Lefrancois,  S. Lehtola,  D. S. Levine,  Yi-Pei Li,  
 You-Sheng Lin,  Fenglai Liu,  E. Livshits,  A. Luenser,  P. Manohar,  
 E. Mansoor,  S. F. Manzer,  Shan-Ping Mao,  Yuezhi Mao,  N. Mardirossian,  
 A. V. Marenich,  T. Markovich,  L. A. Martinez-Martinez,  S. A. Maurer,  
 N. J. Mayhall,  S. C. McKenzie,  J.-M. Mewes,  A. F. Morrison,  
 J. W. Mullinax,  K. Nanda,  T. S. Nguyen-Beck,  R. Olivares-Amaya,  
 J. A. Parkhill,  T. M. Perrine,  F. Plasser,  P. Pokhilko,  S. Prager,  
 A. Prociuk,  E. Ramos,  D. R. Rehn,  F. Rob,  M. Schneider,  N. Sergueev,  
 S. M. Sharada,  S. Sharma,  D. W. Small,  T. Stauch,  T. Stein,  
 Yu-Chuan Su,  A. J. W. Thom,  A. Tkatchenko,  T. Tsuchimochi,  N. M. Tubman,  
 L. Vogt,  M. L. Vidal,  O. Vydrov,  M. A. Watson,  J. Wenzel,  
 M. de Wergifosse,  T. A. Wesolowski,  A. White,  J. Witte,  A. Yamada,  
 Jun Yang,  K. Yao,  S. Yeganeh,  S. R. Yost,  Zhi-Qiang You,  A. Zech,  
 Igor Ying Zhang,  Xing Zhang,  Yan Zhao,  Ying Zhu,  B. R. Brooks,  
 G. K. L. Chan,  C. J. Cramer,  M. S. Gordon,  W. J. Hehre,  A. Klamt,  
 M. W. Schmidt,  C. D. Sherrill,  D. G. Truhlar,  A. Aspuru-Guzik,  R. Baer,  
 A. T. Bell,  N. A. Besley,  Jeng-Da Chai,  A. E. DePrince, III,  
 R. A. DiStasio Jr.,  A. Dreuw,  B. D. Dunietz,  T. R. Furlani,  
 Chao-Ping Hsu,  Yousung Jung,  Jing Kong,  D. S. Lambrecht,  WanZhen Liang,  
 C. Ochsenfeld,  V. A. Rassolov,  L. V. Slipchenko,  J. E. Subotnik,  
 T. Van Voorhis,  J. M. Herbert,  A. I. Krylov,  P. M. W. Gill,  M. Head-Gordon

 Contributors to earlier versions of Q-Chem not listed above: 
 R. D. Adamson,  B. Austin,  J. Baker,  G. J. O. Beran,  K. Brandhorst,  
 S. T. Brown,  E. F. C. Byrd,  A. K. Chakraborty,  C.-L. Cheng,  
 Siu Hung Chien,  D. M. Chipman,  D. L. Crittenden,  H. Dachsel,  
 R. J. Doerksen,  A. D. Dutoi,  L. Fusti-Molnar,  W. A. Goddard III,  
 A. Golubeva-Zadorozhnaya,  S. R. Gwaltney,  G. Hawkins,  A. Heyden,  
 S. Hirata,  G. Kedziora,  F. J. Keil,  C. Kelley,  Jihan Kim,  R. A. King,  
 R. Z. Khaliullin,  P. P. Korambath,  W. Kurlancheek,  A. M. Lee,  M. S. Lee,  
 S. V. Levchenko,  Ching Yeh Lin,  D. Liotard,  R. C. Lochan,  I. Lotan,  
 P. E. Maslen,  N. Nair,  D. P. O'Neill,  D. Neuhauser,  E. Neuscamman,  
 C. M. Oana,  R. Olson,  B. Peters,  R. Peverati,  P. A. Pieniazek,  
 Y. M. Rhee,  J. Ritchie,  M. A. Rohrdanz,  E. Rosta,  N. J. Russ,  
 H. F. Schaefer III,  N. E. Schultz,  N. Shenvi,  A. C. Simmonett,  A. Sodt,  
 D. Stuck,  K. S. Thanthiriwatte,  V. Vanovschi,  Tao Wang,  A. Warshel,  
 C. F. Williams,  Q. Wu,  X. Xu,  W. Zhang

 Please cite Q-Chem as follows:
 Y. Shao et al., Mol. Phys. 113, 184-215 (2015)
 DOI: 10.1080/00268976.2014.952696

 Q-Chem 5.1.1 for Intel X86 EM64T Linux

 Parts of Q-Chem use Armadillo 8.300.2 (Tropical Shenanigans).
 http://arma.sourceforge.net/

 Q-Chem begins on Fri Jul  2 13:56:25 2021  

Host: n0040.mhg0
0

     Scratch files written to /global/scratch/lbettins/qchem28090//
Input Ideriv = 2
Curr. Ideriv = -1
Max.  Ideriv = 2

Checking the input file for inconsistencies... 	...done.

--------------------------------------------------------------
User input:
--------------------------------------------------------------
$rem
   JOBTYPE  freq
   EXCHANGE   wb97x-d
   BASIS   def2-svp
   UNRESTRICTED   False
   max_scf_cycles   250
   geom_opt_max_cycles   1
   SYM_IGNORE  TRUE
   print_input   true
   geom_opt_dmax   80
   pop_mulliken false
   XC_GRID 000075000302
$end

$molecule
0 1
C       16.3674602835     5.6237254924     8.7184599556
H       15.3526829875     3.7221555427     8.5377243732
C       15.3393034082     4.7123863008     8.0536965105
H       15.6284131643     4.5351645911     7.0052851098
H       13.5938059604     5.4391129271     9.1427179774
C       13.9276154852     5.2883318758     8.1021093940
H       13.1872078085     4.6292277223     7.6253752430
H       13.8736326157     6.2610445865     7.5859406170
H       16.1502990327     5.7496846192     9.7941828306
H       16.3875242484     6.6150787665     8.2320434297
H       17.3872259358     5.2160727877     8.6517847104
$end
--------------------------------------------------------------
 ----------------------------------------------------------------
             Standard Nuclear Orientation (Angstroms)
    I     Atom           X                Y                Z
 ----------------------------------------------------------------
    1      C      16.3674602835     5.6237254924     8.7184599556
    2      H      15.3526829875     3.7221555427     8.5377243732
    3      C      15.3393034082     4.7123863008     8.0536965105
    4      H      15.6284131643     4.5351645911     7.0052851098
    5      H      13.5938059604     5.4391129271     9.1427179774
    6      C      13.9276154852     5.2883318758     8.1021093940
    7      H      13.1872078085     4.6292277223     7.6253752430
    8      H      13.8736326157     6.2610445865     7.5859406170
    9      H      16.1502990327     5.7496846192     9.7941828306
   10      H      16.3875242484     6.6150787665     8.2320434297
   11      H      17.3872259358     5.2160727877     8.6517847104
 ----------------------------------------------------------------
 Nuclear Repulsion Energy =    82.2901849898 hartrees
 There are       13 alpha and       13 beta electrons
 Requested basis set is def2-SVP
 There are 42 shells and 82 basis functions

 Total QAlloc Memory Limit   2000 MB
 Mega-Array Size       188 MB
 MEM_STATIC part       192 MB

                       Distance Matrix (Angstroms)
             C (  1)   H (  2)   C (  3)   H (  4)   H (  5)   C (  6)
   H (  2)  2.162962
   C (  3)  1.526288  1.102279
   H (  4)  2.160121  1.756525  1.101889
   H (  5)  2.811981  2.531325  2.181940  3.086320
   C (  6)  2.538744  2.161825  1.525424  2.159397  1.103191
   H (  7)  3.506831  2.518818  2.195880  2.520485  1.767361  1.099953
   H (  8)  2.812108  3.088598  2.182963  2.528849  1.782535  1.102504
   H (  9)  1.104629  2.515105  2.182429  3.086321  2.656411  2.831304
   H ( 10)  1.104439  3.087611  2.179636  2.531250  3.164978  2.797908
   H ( 11)  1.100249  2.526690  2.192121  2.503601  3.831553  3.503751
             H (  7)   H (  8)   H (  9)   H ( 10)
   H (  8)  1.770751
   H (  9)  3.839148  3.212636
   H ( 10)  3.814928  2.619626  1.801517
   H ( 11)  4.363262  3.817503  1.766296  1.769973
 
 A cutoff of  1.0D-11 yielded    899 shell pairs
 There are      3459 function pairs (      3726 Cartesian)
 
 -------------------------------------------------------
 OpenMP Integral Computing Module                       
 Release: version 1.0, May 2013, Q-Chem Inc. Pittsburgh 
 -------------------------------------------------------
 Integral Job Info:
 Integral job number is                      11
 Integral operator is                         1
 short-range coefficients              22203600
 long-range coefficients              100000000
 Omega coefficients                         200
 if combine SR and LR in K                    1
 Integral screening is                        0
 Integral computing path is                   2
 max size of driver memory is            800000
 size of driver memory is                593474
 size of scratch memory is              1848772
 max col of scratch BK array               1296
 max len of scratch array in speh3          155
 max len of scratch index in speh4           18
 max int batch size is                      520
 min int batch size is                       52
 fixed nKL is                                52
 max L of basis functions is                  2
 order of int derivative is                   0
 number of shells is                         42
 number of basis is                          85
 number of cartesian basis is                85
 number of contracted shell pairs           899
 number of primitive shell pairs           2496
 maxK2 (contraction) of shell pair           25
 max number of K2 of shell pair               1
 max number of CS2 of shell pair            164
 max number of PS2 of shell pair            351
 mem total for path MDJ                  512034
 -------------------------------------------------------
 Smallest overlap matrix eigenvalue = 3.03E-03
 Guess from superposition of atomic densities
 Warning:  Energy on first SCF cycle will be non-variational
 SAD guess density has 26.000000 electrons

 -----------------------------------------------------------------------
  General SCF calculation program by
  Eric Jon Sundstrom, Paul Horn, Yuezhi Mao, Dmitri Zuev, Alec White,
  David Stuck, Shaama M.S., Shane Yost, Joonho Lee, David Small,
  Daniel Levine, Susi Lehtola, Hugh Burton, Evgeny Epifanovsky
 -----------------------------------------------------------------------
 Exchange:     0.2220 Hartree-Fock + 1.0000 wB97X-D + LR-HF
 Correlation:  1.0000 wB97X-D
 Using Euler-Maclaurin-Lebedev (75,302) quadrature formula
 Dispersion:   Grimme D
 using 32 threads for integral computing
 -------------------------------------------------------
 OpenMP Integral computing Module                
 Release: version 1.0, May 2013, Q-Chem Inc. Pittsburgh 
 -------------------------------------------------------
 using 32 threads for integral computing
 -------------------------------------------------------
 OpenMP Integral computing Module                
 Release: version 1.0, May 2013, Q-Chem Inc. Pittsburgh 
 -------------------------------------------------------
 -------------------------------------------------------
 OpenMP BLAS3 based DFT computing Module                
 Release: version 1.0, May 2013, Q-Chem Inc. Pittsburgh 
 -------------------------------------------------------
 A restricted SCF calculation will be
 performed using DIIS
 SCF converges when DIIS error is below 1.0e-08
 ---------------------------------------
  Cycle       Energy         DIIS error
 ---------------------------------------
    1    -119.5281244802      7.18e-02  
    2    -118.9783749920      6.71e-03  
    3    -118.9982035450      5.07e-03  
    4    -119.0205514682      2.53e-04  
    5    -119.0206175567      1.06e-04  
    6    -119.0206268291      2.68e-05  
    7    -119.0206274536      3.80e-06  
    8    -119.0206274747      6.25e-07  
    9    -119.0206274753      9.20e-08  
   10    -119.0206274753      1.56e-08  
   11    -119.0206274753      7.65e-09  Convergence criterion met
 ---------------------------------------
 SCF time:   CPU 118.96s  wall 3.00s 
 SCF   energy in the final basis set =     -119.0206274753
 Total energy in the final basis set =     -119.0206274753
 
 --------------------------------------------------------------
 
                    Orbital Energies (a.u.)
 --------------------------------------------------------------
 
 Alpha MOs
 -- Occupied --
-10.291 -10.286 -10.285  -0.871  -0.767  -0.668  -0.542  -0.521
 -0.478  -0.462  -0.419  -0.415  -0.405
 -- Virtual --
  0.140   0.188   0.188   0.189   0.218   0.239   0.244   0.249
  0.295   0.335   0.481   0.507   0.515   0.537   0.544   0.705
  0.715   0.721   0.729   0.730   0.773   0.773   0.787   0.789
  0.793   0.801   0.808   0.844   1.078   1.096   1.193   1.225
  1.374   1.446   1.456   1.627   1.633   1.655   1.811   1.834
  1.849   1.878   1.889   1.902   1.921   1.934   1.942   1.955
  1.962   2.043   2.090   2.187   2.319   2.322   2.438   2.481
  2.487   2.556   2.645   2.668   2.686   2.746   2.925   2.960
  3.002   3.022   3.104   3.140   3.162
 --------------------------------------------------------------
 
 -----------------------------------------------------------------
                    Cartesian Multipole Moments
 -----------------------------------------------------------------
    Charge (ESU x 10^10)
                 0.0000
    Dipole Moment (Debye)
         X       0.0177      Y      -0.0566      Z      -0.0257
       Tot       0.0647
    Quadrupole Moments (Debye-Ang)
        XX     -21.3208     XY      -0.7588     YY     -22.2316
        XZ      -0.3462     YZ      -0.8323     ZZ     -21.7987
    Octopole Moments (Debye-Ang^2)
       XXX    -984.1818    XXY    -125.1760    XYY    -337.6905
       YYY    -344.0114    XXZ    -186.3681    XYZ     -12.6344
       YYZ    -188.1099    XZZ    -332.2445    YZZ    -121.6690
       ZZZ    -537.1473
    Hexadecapole Moments (Debye-Ang^3)
      XXXX  -30223.4773   XXXY   -5386.8868   XXYY   -5779.2985
      XYYY   -5238.4337   YYYY   -3645.0810   XXXZ   -8363.1031
      XXYZ   -1151.9133   XYYZ   -2868.7230   YYYZ   -2894.3364
      XXZZ   -6616.9866   XYZZ   -1861.0166   YYZZ   -2196.0355
      XZZZ   -8204.0695   YZZZ   -2894.5048   ZZZZ   -8937.3906
 -----------------------------------------------------------------
 Calculating MO derivatives via CPSCF
 D1JvT checksum  = 184536 6641.7027163008
 D1KAT checksum  = 358248 802.5796586217
 D1JvT checksum  = 184536 3778.1054803801
 D1KAT checksum  = 358248 339.0820204523
   1         3          33      0.181538    0.025388
   2         3          33      0.021472    0.003258
   3         3          33      0.002016    0.000290
   4         3          33      0.000167    0.000027
   5        33           3      0.000005    0.000002
   6        36           0      0.000000    0.000000    Roots Converged
 Time for AOints: 14.4 s (CPU) 0.5 s (wall)
 ------------------------------------------------------------------------------
                     AOints        : Timing summary (seconds)
 ------------------------------------------------------------------------------
     job step          cpu (% of tot)      sys (% of tot)     wall (% of tot)
 ------------------------------------------------------------------------------
  cpscf_lag         0.3002E+03 (43.9)   0.2525E-02 (60.8)   0.1227E+02 (37.5)
  iterzp            0.3666E+03 (53.6)   0.1468E-02 (35.3)   0.1990E+02 (60.8)
  make_fx           0.0000E+00 ( 0.0)   0.0000E+00 ( 0.0)   0.0000E+00 ( 0.0)
  AOints            0.1445E+02 ( 2.1)   0.1270E-03 ( 3.1)   0.4597E+00 ( 1.4)
 ------------------------------------------------------------------------------
   Grand Totals     0.6841E+03          0.4154E-02          0.3271E+02
 ------------------------------------------------------------------------------
 Calculating analytic Hessian of the SCF energy
 Polarizability Matrix (a.u.)
            1           2           3
    1 -37.5950249  -0.4353040  -1.0475790
    2  -0.4353040 -33.7840545  -0.4449138
    3  -1.0475790  -0.4449138 -33.5017801
atom: 0 element: 6
atom: 1 element: 1
atom: 2 element: 6
atom: 3 element: 1
atom: 4 element: 1
atom: 5 element: 6
atom: 6 element: 1
atom: 7 element: 1
atom: 8 element: 1
atom: 9 element: 1
atom: 10 element: 1
 
 Direct stationary perturbation theory relativistic correction:
 
 rels  =       0.026227031745
 relv  =      -0.113959814965
 rel2e =       0.000000000000
 E_rel =      -0.087732783220
 
 Hessian of the SCF Energy
            1           2           3           4           5           6
    1   0.5504260  -0.0359268  -0.0230246  -0.0006004   0.0000892  -0.0003306
    2  -0.0359268   0.5396912  -0.0273373  -0.0208951  -0.0164707  -0.0151661
    3  -0.0230246  -0.0273373   0.5607124   0.0107921   0.0087161   0.0069336
    4  -0.0006004  -0.0208951   0.0107921   0.0546085  -0.0016456   0.0026092
    5   0.0000892  -0.0164707   0.0087161  -0.0016456   0.2802166  -0.1149475
    6  -0.0003306  -0.0151661   0.0069336   0.0026092  -0.1149475   0.1070278
    7  -0.1383575  -0.0553482  -0.0389717  -0.0468908   0.0020764  -0.0001969
    8  -0.0525265  -0.1318124  -0.0364858   0.0016561  -0.2596301   0.1082759
    9  -0.0378157  -0.0368435  -0.1080403  -0.0000321   0.1068495  -0.1041673
   10   0.0051455  -0.0034071  -0.0235664  -0.0004869  -0.0000972  -0.0006333
   11   0.0049520  -0.0031488  -0.0198491  -0.0076285   0.0048552   0.0271241
   12   0.0032370  -0.0011659  -0.0124195   0.0034379  -0.0025856  -0.0128392
   13   0.0016648   0.0001463   0.0013752   0.0011618  -0.0001590  -0.0003933
   14  -0.0008329   0.0001676   0.0005500  -0.0004307   0.0000537  -0.0005036
   15  -0.0004451   0.0002202   0.0010323   0.0003630  -0.0003281   0.0006213
   16  -0.0284645   0.0072195  -0.0010558  -0.0011293  -0.0002526   0.0003400
   17  -0.0205299   0.0092481   0.0013831   0.0287009  -0.0096727  -0.0024359
   18  -0.0159061   0.0062782   0.0006090  -0.0151877   0.0051638   0.0005952
   19  -0.0052942   0.0042043   0.0012664   0.0009319   0.0002120  -0.0003585
   20   0.0022477  -0.0007214  -0.0002036  -0.0005382   0.0006931   0.0002601
   21   0.0001387   0.0001875   0.0006118  -0.0003672  -0.0000178  -0.0000924
   22   0.0018659   0.0012438  -0.0002084  -0.0059246   0.0024416   0.0001531
   23  -0.0008448   0.0010661  -0.0006061   0.0027022   0.0002462  -0.0006093
   24   0.0000847   0.0002920  -0.0001130   0.0004609  -0.0004054   0.0011567
   25  -0.0593781   0.0062162   0.0551754   0.0007661   0.0005102   0.0006105
   26   0.0060208  -0.0509097  -0.0256726   0.0007898   0.0003693  -0.0000760
   27   0.0546860  -0.0264768  -0.2987942  -0.0001176  -0.0002286   0.0008040
   28  -0.0470338  -0.0003662   0.0009247  -0.0027757  -0.0029303  -0.0022844
   29  -0.0008978  -0.2589789   0.1066402  -0.0030206  -0.0013609  -0.0025355
   30   0.0011810   0.1074126  -0.1024763  -0.0025823  -0.0022478  -0.0003989
   31  -0.2799738   0.0969131   0.0172930   0.0003395  -0.0002446   0.0004842
   32   0.0982491  -0.0881310  -0.0071348   0.0003098   0.0007002   0.0006139
   33   0.0181946  -0.0074009  -0.0480559   0.0006238   0.0000313   0.0003593
            7           8           9          10          11          12
    1  -0.1383575  -0.0525265  -0.0378157   0.0051455   0.0049520   0.0032370
    2  -0.0553482  -0.1318124  -0.0368435  -0.0034071  -0.0031488  -0.0011659
    3  -0.0389717  -0.0364858  -0.1080403  -0.0235664  -0.0198491  -0.0124195
    4  -0.0468908   0.0016561  -0.0000321  -0.0004869  -0.0076285   0.0034379
    5   0.0020764  -0.2596301   0.1068495  -0.0000972   0.0048552  -0.0025856
    6  -0.0001969   0.1082759  -0.1041673  -0.0006333   0.0271241  -0.0128392
    7   0.4823484  -0.0067009  -0.0267313  -0.0647677   0.0100528   0.0670681
    8  -0.0067009   0.5647890  -0.0240485   0.0104307  -0.0548323  -0.0364162
    9  -0.0267313  -0.0240485   0.5894579   0.0669614  -0.0350314  -0.2914490
   10  -0.0647677   0.0104307   0.0669614   0.0747240  -0.0108539  -0.0707556
   11   0.0100528  -0.0548323  -0.0350314  -0.0108539   0.0559575   0.0419238
   12   0.0670681  -0.0364162  -0.2914490  -0.0707556   0.0419238   0.3119492
   13  -0.0088104   0.0035554   0.0299716  -0.0058014   0.0025911  -0.0001472
   14   0.0036294  -0.0023641  -0.0131249   0.0028884  -0.0002562   0.0000290
   15  -0.0009316  -0.0001100   0.0003902  -0.0001583  -0.0002735   0.0015235
   16  -0.1946482   0.0481717   0.0052674  -0.0092705   0.0036577  -0.0008942
   17   0.0512103  -0.1032703  -0.0016634   0.0041761  -0.0021953   0.0005853
   18   0.0066288  -0.0021765  -0.0816327   0.0302775  -0.0124130   0.0010556
   19  -0.0158744  -0.0200475  -0.0131229   0.0007019  -0.0004012   0.0005299
   20   0.0101834   0.0093928   0.0076984  -0.0007235   0.0004077   0.0000186
   21   0.0027897   0.0022764  -0.0000793  -0.0000288   0.0004962   0.0004168
   22  -0.0008824   0.0278122  -0.0155563   0.0012088  -0.0004321   0.0002092
   23  -0.0004638  -0.0108268   0.0052105  -0.0000055   0.0001191  -0.0003450
   24   0.0004242  -0.0027394   0.0008853  -0.0004643  -0.0005449   0.0005269
   25   0.0046559  -0.0021157  -0.0226993  -0.0027839  -0.0028939  -0.0023243
   26   0.0049712  -0.0029221  -0.0206533  -0.0034354  -0.0019337  -0.0020484
   27   0.0036827  -0.0013347  -0.0126642  -0.0023337  -0.0020323   0.0002270
   28  -0.0006587  -0.0202120   0.0105941   0.0006396   0.0007729   0.0000331
   29   0.0006142  -0.0176175   0.0088752   0.0003488   0.0003010  -0.0002711
   30  -0.0002565  -0.0147292   0.0070951   0.0006970  -0.0000546   0.0007406
   31  -0.0161143   0.0099765   0.0031631   0.0006904   0.0001831  -0.0003940
   32  -0.0202247   0.0090938   0.0027314   0.0006786   0.0007258   0.0002755
   33  -0.0135054   0.0074882   0.0002044   0.0000045   0.0006547   0.0002680
           13          14          15          16          17          18
    1   0.0016648  -0.0008329  -0.0004451  -0.0284645  -0.0205299  -0.0159061
    2   0.0001463   0.0001676   0.0002202   0.0072195   0.0092481   0.0062782
    3   0.0013752   0.0005500   0.0010323  -0.0010558   0.0013831   0.0006090
    4   0.0011618  -0.0004307   0.0003630  -0.0011293   0.0287009  -0.0151877
    5  -0.0001590   0.0000537  -0.0003281  -0.0002526  -0.0096727   0.0051638
    6  -0.0003933  -0.0005036   0.0006213   0.0003400  -0.0024359   0.0005952
    7  -0.0088104   0.0036294  -0.0009316  -0.1946482   0.0512103   0.0066288
    8   0.0035554  -0.0023641  -0.0001100   0.0481717  -0.1032703  -0.0021765
    9   0.0299716  -0.0131249   0.0003902   0.0052674  -0.0016634  -0.0816327
   10  -0.0058014   0.0028884  -0.0001583  -0.0092705   0.0041761   0.0302775
   11   0.0025911  -0.0002562  -0.0002735   0.0036577  -0.0021953  -0.0124130
   12  -0.0001472   0.0000290   0.0015235  -0.0008942   0.0005853   0.0010556
   13   0.0749615  -0.0136854  -0.0801287  -0.0687355   0.0097040   0.0724084
   14  -0.0136854   0.0514060   0.0369056   0.0097369  -0.0522482  -0.0324024
   15  -0.0801287   0.0369056   0.3085831   0.0730886  -0.0326916  -0.2894001
   16  -0.0687355   0.0097369   0.0730886   0.5151398   0.0360438   0.0077279
   17   0.0097040  -0.0522482  -0.0326916   0.0360438   0.5657203  -0.0012899
   18   0.0724084  -0.0324024  -0.2894001   0.0077279  -0.0012899   0.5764537
   19   0.0063292   0.0067847   0.0043665  -0.1671040  -0.1103938  -0.0794905
   20  -0.0017021  -0.0024610  -0.0003093  -0.1115361  -0.1500807  -0.0743353
   21  -0.0203161  -0.0185422  -0.0114995  -0.0800751  -0.0741347  -0.0997008
   22  -0.0008601  -0.0081534   0.0031703  -0.0470961   0.0063963  -0.0038120
   23  -0.0001841   0.0055122  -0.0037515   0.0070690  -0.2563869   0.1123389
   24  -0.0015209   0.0267628  -0.0115202  -0.0041559   0.1124720  -0.1080220
   25  -0.0002569   0.0000546   0.0006327   0.0017388   0.0000785  -0.0010982
   26  -0.0002880   0.0003614   0.0002971   0.0009111   0.0003163   0.0006467
   27  -0.0008611   0.0001928   0.0001074   0.0007763   0.0003528   0.0006814
   28  -0.0000373   0.0000593   0.0000157   0.0013925  -0.0010718   0.0010981
   29  -0.0000580   0.0000015  -0.0000293   0.0012243   0.0011222   0.0001468
   30  -0.0000681   0.0001315  -0.0000832   0.0006740  -0.0001984   0.0004314
   31   0.0003842  -0.0000511   0.0000269  -0.0018230  -0.0043143  -0.0026461
   32   0.0000798  -0.0001729   0.0000705  -0.0022453  -0.0025528  -0.0019573
   33  -0.0003199   0.0000014   0.0002452  -0.0016931  -0.0023793  -0.0010707
           19          20          21          22          23          24
    1  -0.0052942   0.0022477   0.0001387   0.0018659  -0.0008448   0.0000847
    2   0.0042043  -0.0007214   0.0001875   0.0012438   0.0010661   0.0002920
    3   0.0012664  -0.0002036   0.0006118  -0.0002084  -0.0006061  -0.0001130
    4   0.0009319  -0.0005382  -0.0003672  -0.0059246   0.0027022   0.0004609
    5   0.0002120   0.0006931  -0.0000178   0.0024416   0.0002462  -0.0004054
    6  -0.0003585   0.0002601  -0.0000924   0.0001531  -0.0006093   0.0011567
    7  -0.0158744   0.0101834   0.0027897  -0.0008824  -0.0004638   0.0004242
    8  -0.0200475   0.0093928   0.0022764   0.0278122  -0.0108268  -0.0027394
    9  -0.0131229   0.0076984  -0.0000793  -0.0155563   0.0052105   0.0008853
   10   0.0007019  -0.0007235  -0.0000288   0.0012088  -0.0000055  -0.0004643
   11  -0.0004012   0.0004077   0.0004962  -0.0004321   0.0001191  -0.0005449
   12   0.0005299   0.0000186   0.0004168   0.0002092  -0.0003450   0.0005269
   13   0.0063292  -0.0017021  -0.0203161  -0.0008601  -0.0001841  -0.0015209
   14   0.0067847  -0.0024610  -0.0185422  -0.0081534   0.0055122   0.0267628
   15   0.0043665  -0.0003093  -0.0114995   0.0031703  -0.0037515  -0.0115202
   16  -0.1671040  -0.1115361  -0.0800751  -0.0470961   0.0070690  -0.0041559
   17  -0.1103938  -0.1500807  -0.0741347   0.0063963  -0.2563869   0.1124720
   18  -0.0794905  -0.0743353  -0.0997008  -0.0038120   0.1123389  -0.1080220
   19   0.1804340   0.1186644   0.0865394   0.0007299   0.0018399   0.0010802
   20   0.1186644   0.1572352   0.0804533  -0.0174794  -0.0151881  -0.0136206
   21   0.0865394   0.0804533   0.1025109   0.0111102   0.0095696   0.0070926
   22   0.0007299  -0.0174794   0.0111102   0.0510335  -0.0106865   0.0044255
   23   0.0018399  -0.0151881   0.0095696  -0.0106865   0.2748202  -0.1219746
   24   0.0010802  -0.0136206   0.0070926   0.0044255  -0.1219746   0.1100120
   25   0.0002012   0.0000079   0.0003144  -0.0000594   0.0000281   0.0000586
   26   0.0001361  -0.0001386   0.0001191  -0.0001143  -0.0000039   0.0000885
   27  -0.0000681   0.0000375   0.0003811   0.0000151  -0.0000195  -0.0000383
   28   0.0002699   0.0002887  -0.0000854  -0.0002991   0.0005325  -0.0004083
   29   0.0001316   0.0002697  -0.0002213  -0.0008497   0.0004545  -0.0000557
   30   0.0002090  -0.0001316  -0.0000541   0.0001711   0.0003741   0.0000124
   31  -0.0013256   0.0005872  -0.0000198   0.0002836   0.0000132   0.0000153
   32  -0.0011305   0.0005914  -0.0001860  -0.0001785   0.0001874  -0.0002748
   33  -0.0009516   0.0001327   0.0004129   0.0003221  -0.0001869   0.0000077
           25          26          27          28          29          30
    1  -0.0593781   0.0060208   0.0546860  -0.0470338  -0.0008978   0.0011810
    2   0.0062162  -0.0509097  -0.0264768  -0.0003662  -0.2589789   0.1074126
    3   0.0551754  -0.0256726  -0.2987942   0.0009247   0.1066402  -0.1024763
    4   0.0007661   0.0007898  -0.0001176  -0.0027757  -0.0030206  -0.0025823
    5   0.0005102   0.0003693  -0.0002286  -0.0029303  -0.0013609  -0.0022478
    6   0.0006105  -0.0000760   0.0008040  -0.0022844  -0.0025355  -0.0003989
    7   0.0046559   0.0049712   0.0036827  -0.0006587   0.0006142  -0.0002565
    8  -0.0021157  -0.0029221  -0.0013347  -0.0202120  -0.0176175  -0.0147292
    9  -0.0226993  -0.0206533  -0.0126642   0.0105941   0.0088752   0.0070951
   10  -0.0027839  -0.0034354  -0.0023337   0.0006396   0.0003488   0.0006970
   11  -0.0028939  -0.0019337  -0.0020323   0.0007729   0.0003010  -0.0000546
   12  -0.0023243  -0.0020484   0.0002270   0.0000331  -0.0002711   0.0007406
   13  -0.0002569  -0.0002880  -0.0008611  -0.0000373  -0.0000580  -0.0000681
   14   0.0000546   0.0003614   0.0001928   0.0000593   0.0000015   0.0001315
   15   0.0006327   0.0002971   0.0001074   0.0000157  -0.0000293  -0.0000832
   16   0.0017388   0.0009111   0.0007763   0.0013925   0.0012243   0.0006740
   17   0.0000785   0.0003163   0.0003528  -0.0010718   0.0011222  -0.0001984
   18  -0.0010982   0.0006467   0.0006814   0.0010981   0.0001468   0.0004314
   19   0.0002012   0.0001361  -0.0000681   0.0002699   0.0001316   0.0002090
   20   0.0000079  -0.0001386   0.0000375   0.0002887   0.0002697  -0.0001316
   21   0.0003144   0.0001191   0.0003811  -0.0000854  -0.0002213  -0.0000541
   22  -0.0000594  -0.0001143   0.0000151  -0.0002991  -0.0008497   0.0001711
   23   0.0000281  -0.0000039  -0.0000195   0.0005325   0.0004545   0.0003741
   24   0.0000586   0.0000885  -0.0000383  -0.0004083  -0.0000557   0.0000124
   25   0.0614109  -0.0040271  -0.0576476  -0.0012755   0.0000281  -0.0014810
   26  -0.0040271   0.0512647   0.0327706  -0.0068096   0.0054878   0.0269396
   27  -0.0576476   0.0327706   0.3202013   0.0024254  -0.0035722  -0.0099718
   28  -0.0012755  -0.0068096   0.0024254   0.0483185   0.0038940   0.0014186
   29   0.0000281   0.0054878  -0.0035722   0.0038940   0.2800836  -0.1138744
   30  -0.0014810   0.0269396  -0.0099718   0.0014186  -0.1138744   0.1039415
   31  -0.0050191   0.0018454  -0.0005574   0.0014595  -0.0014149   0.0000372
   32   0.0021130  -0.0018915   0.0003104   0.0258424  -0.0097630  -0.0036216
   33   0.0284588  -0.0124113  -0.0009338  -0.0137314   0.0048973   0.0007634
           31          32          33
    1  -0.2799738   0.0982491   0.0181946
    2   0.0969131  -0.0881310  -0.0074009
    3   0.0172930  -0.0071348  -0.0480559
    4   0.0003395   0.0003098   0.0006238
    5  -0.0002446   0.0007002   0.0000313
    6   0.0004842   0.0006139   0.0003593
    7  -0.0161143  -0.0202247  -0.0135054
    8   0.0099765   0.0090938   0.0074882
    9   0.0031631   0.0027314   0.0002044
   10   0.0006904   0.0006786   0.0000045
   11   0.0001831   0.0007258   0.0006547
   12  -0.0003940   0.0002755   0.0002680
   13   0.0003842   0.0000798  -0.0003199
   14  -0.0000511  -0.0001729   0.0000014
   15   0.0000269   0.0000705   0.0002452
   16  -0.0018230  -0.0022453  -0.0016931
   17  -0.0043143  -0.0025528  -0.0023793
   18  -0.0026461  -0.0019573  -0.0010707
   19  -0.0013256  -0.0011305  -0.0009516
   20   0.0005872   0.0005914   0.0001327
   21  -0.0000198  -0.0001860   0.0004129
   22   0.0002836  -0.0001785   0.0003221
   23   0.0000132   0.0001874  -0.0001869
   24   0.0000153  -0.0002748   0.0000077
   25  -0.0050191   0.0021130   0.0284588
   26   0.0018454  -0.0018915  -0.0124113
   27  -0.0005574   0.0003104  -0.0009338
   28   0.0014595   0.0258424  -0.0137314
   29  -0.0014149  -0.0097630   0.0048973
   30   0.0000372  -0.0036216   0.0007634
   31   0.3010984  -0.1034937  -0.0174024
   32  -0.1034937   0.0912127   0.0091729
   33  -0.0174024   0.0091729   0.0477995
 Gradient time:  CPU 828.64 s  wall 48.81 s
 **********************************************************************
 **                                                                  **
 **                       VIBRATIONAL ANALYSIS                       **
 **                       --------------------                       **
 **                                                                  **
 **        VIBRATIONAL FREQUENCIES (CM**-1) AND NORMAL MODES         **
 **     FORCE CONSTANTS (mDYN/ANGSTROM) AND REDUCED MASSES (AMU)     **
 **                  INFRARED INTENSITIES (KM/MOL)                   **
 **                                                                  **
 **********************************************************************
 

 Mode:                 1                      2                      3
 Frequency:       227.87                 294.26                 373.11
 Force Cnst:      0.0316                 0.0575                 0.1662
 Red. Mass:       1.0339                 1.1277                 2.0267
 IR Active:          YES                    YES                    YES
 IR Intens:        0.000                  0.009                  0.148
 Raman Active:       YES                    YES                    YES
               X      Y      Z        X      Y      Z        X      Y      Z
 C         -0.007 -0.018  0.034   -0.009 -0.014  0.026    0.175 -0.027  0.020
 H          0.003 -0.004 -0.040    0.049 -0.011 -0.181   -0.029  0.136  0.041
 C          0.003  0.008 -0.017    0.015  0.038 -0.079   -0.038  0.151  0.069
 H          0.007  0.033 -0.020    0.006  0.156 -0.102   -0.036  0.134  0.071
 H          0.184  0.449 -0.026    0.189  0.174  0.074   -0.345 -0.113 -0.119
 C          0.004  0.011 -0.020   -0.004 -0.019  0.040   -0.151 -0.071 -0.063
 H         -0.071 -0.207  0.396   -0.058 -0.162  0.322    0.099 -0.310 -0.124
 H         -0.097 -0.210 -0.425   -0.158 -0.126 -0.147   -0.357 -0.125 -0.142
 H          0.142 -0.305  0.099   -0.336  0.275 -0.075    0.372 -0.017  0.058
 H         -0.207  0.102  0.271    0.353 -0.127 -0.193    0.406 -0.017  0.049
 H          0.036  0.131 -0.227   -0.073 -0.244  0.463    0.050 -0.317 -0.138
 TransDip   0.000  0.000 -0.000   -0.001 -0.001  0.003    0.003 -0.011 -0.006

 Mode:                 4                      5                      6
 Frequency:       757.48                 893.10                 917.38
 Force Cnst:      0.3661                 1.1211                 0.5467
 Red. Mass:       1.0829                 2.3856                 1.1027
 IR Active:          YES                    YES                    YES
 IR Intens:        4.178                  1.209                  0.001
 Raman Active:       YES                    YES                    YES
               X      Y      Z        X      Y      Z        X      Y      Z
 C         -0.003 -0.007  0.012   -0.189 -0.074 -0.075    0.013  0.030 -0.055
 H          0.158 -0.279 -0.437   -0.030  0.167  0.085    0.342  0.054  0.098
 C         -0.012 -0.036  0.070   -0.040  0.159  0.076    0.002 -0.001 -0.005
 H         -0.066  0.537 -0.045   -0.054  0.157  0.075   -0.343 -0.066 -0.089
 H         -0.225  0.201 -0.088    0.005 -0.104 -0.027   -0.322  0.225 -0.081
 C         -0.002 -0.008  0.016    0.212 -0.019  0.030   -0.014 -0.030  0.058
 H          0.020  0.059 -0.110    0.532 -0.298 -0.067    0.025  0.093 -0.172
 H          0.270 -0.078 -0.148    0.035 -0.089 -0.076    0.357 -0.111 -0.139
 H          0.169  0.244  0.015    0.013 -0.129 -0.030   -0.263 -0.309 -0.068
 H         -0.129 -0.124 -0.236    0.043 -0.072 -0.055    0.213  0.190  0.286
 H          0.011  0.047 -0.105   -0.346 -0.420 -0.279   -0.015 -0.079  0.185
 TransDip   0.010  0.030 -0.058    0.008 -0.031 -0.015   -0.001  0.001 -0.000

 Mode:                 7                      8                      9
 Frequency:       930.57                1082.65                1174.89
 Force Cnst:      0.6033                 1.4987                 1.4878
 Red. Mass:       1.1824                 2.1701                 1.8294
 IR Active:          YES                    YES                    YES
 IR Intens:        2.687                  0.323                  1.729
 Raman Active:       YES                    YES                    YES
               X      Y      Z        X      Y      Z        X      Y      Z
 C          0.047 -0.067 -0.028   -0.094 -0.106 -0.072    0.064 -0.110 -0.049
 H         -0.208 -0.030 -0.053    0.541  0.076  0.140   -0.045  0.164  0.062
 C          0.030  0.004  0.008    0.225  0.031  0.058   -0.045  0.169  0.083
 H         -0.200 -0.027 -0.050    0.532  0.071  0.136   -0.046  0.156  0.090
 H         -0.319 -0.056 -0.045   -0.190  0.099 -0.002    0.372  0.072  0.029
 C          0.010  0.075  0.041   -0.141  0.073  0.011   -0.003 -0.121 -0.065
 H          0.390 -0.274 -0.072   -0.175  0.097  0.022   -0.327  0.183  0.038
 H         -0.310 -0.021 -0.107   -0.204  0.087  0.032    0.347  0.012  0.148
 H         -0.298 -0.021 -0.103   -0.140 -0.149 -0.082   -0.344 -0.019 -0.142
 H         -0.323 -0.072 -0.053   -0.140 -0.130 -0.111   -0.368 -0.090 -0.029
 H          0.231  0.358  0.228   -0.108 -0.128 -0.090    0.217  0.261  0.175
 TransDip  -0.050 -0.007 -0.013    0.017  0.003  0.005   -0.011  0.037  0.018

 Mode:                10                     11                     12
 Frequency:      1207.41                1308.46                1355.58
 Force Cnst:      1.4294                 1.1372                 1.4616
 Red. Mass:       1.6641                 1.1274                 1.3500
 IR Active:          YES                    YES                    YES
 IR Intens:        0.417                  0.001                  2.164
 Raman Active:       YES                    YES                    YES
               X      Y      Z        X      Y      Z        X      Y      Z
 C          0.017  0.056 -0.102    0.010  0.034 -0.066   -0.009  0.052  0.026
 H          0.110 -0.269 -0.227   -0.612 -0.085 -0.153   -0.499 -0.069 -0.129
 C         -0.028 -0.084  0.155    0.001 -0.001  0.002    0.150  0.021  0.038
 H         -0.082  0.348  0.067    0.616  0.090  0.156   -0.498 -0.070 -0.126
 H          0.272 -0.241  0.028   -0.136  0.122  0.002   -0.129  0.172 -0.090
 C          0.019  0.055 -0.103   -0.012 -0.033  0.064    0.017 -0.051 -0.023
 H         -0.035 -0.112  0.210    0.016  0.051 -0.096   -0.257  0.190  0.052
 H         -0.310  0.158  0.140    0.148 -0.094 -0.067   -0.171  0.042  0.148
 H         -0.193 -0.310 -0.094   -0.090 -0.164 -0.063   -0.107 -0.213  0.027
 H          0.164  0.222  0.261    0.081  0.128  0.128   -0.068 -0.075 -0.212
 H         -0.028 -0.109  0.207   -0.013 -0.051  0.098   -0.147 -0.244 -0.154
 TransDip  -0.003 -0.009  0.018    0.000  0.001 -0.001    0.045  0.005  0.011

 Mode:                13                     14                     15
 Frequency:      1414.53                1416.39                1473.16
 Force Cnst:      1.6630                 1.4946                 1.3278
 Red. Mass:       1.4106                 1.2644                 1.0384
 IR Active:          YES                    YES                    YES
 IR Intens:        6.567                  2.837                  0.386
 Raman Active:       YES                    YES                    YES
               X      Y      Z        X      Y      Z        X      Y      Z
 C         -0.112 -0.062 -0.051    0.037  0.052  0.034   -0.016  0.022  0.008
 H         -0.262 -0.022 -0.047   -0.048 -0.055 -0.084   -0.096  0.198  0.435
 C          0.103  0.016  0.027    0.031 -0.002  0.005   -0.004 -0.038 -0.020
 H         -0.263 -0.012 -0.067   -0.060 -0.092 -0.013   -0.015  0.480 -0.095
 H          0.228  0.047  0.073    0.415 -0.158  0.194    0.018 -0.176  0.034
 C         -0.076  0.002 -0.014   -0.122  0.048  0.003    0.006  0.007  0.007
 H          0.113 -0.164 -0.060    0.317 -0.336 -0.119   -0.072  0.097 -0.012
 H          0.235  0.057  0.066    0.468  0.008 -0.112   -0.006 -0.095 -0.180
 H          0.437  0.172  0.041   -0.201 -0.225  0.013    0.117 -0.414  0.084
 H          0.414  0.070  0.222   -0.161 -0.083 -0.239    0.146 -0.164 -0.359
 H          0.098  0.382  0.222   -0.092 -0.226 -0.137    0.074  0.186  0.147
 TransDip   0.075  0.023  0.025    0.033 -0.040 -0.014    0.015 -0.011 -0.006

 Mode:                16                     17                     18
 Frequency:      1475.63                1477.71                1492.06
 Force Cnst:      1.3295                 1.3661                 1.4328
 Red. Mass:       1.0363                 1.0618                 1.0924
 IR Active:          YES                    YES                    YES
 IR Intens:        0.382                  1.684                  5.555
 Raman Active:       YES                    YES                    YES
               X      Y      Z        X      Y      Z        X      Y      Z
 C         -0.007 -0.006  0.029   -0.009  0.028  0.005    0.028 -0.003 -0.007
 H         -0.023  0.001 -0.008    0.167 -0.053 -0.123   -0.119  0.165  0.410
 C         -0.012  0.001 -0.007   -0.050  0.008 -0.003    0.016 -0.064 -0.039
 H          0.086 -0.001  0.020    0.110 -0.153  0.064   -0.025  0.423 -0.123
 H         -0.337 -0.047 -0.123    0.097  0.529 -0.058   -0.006  0.322 -0.056
 C          0.008  0.009 -0.036    0.002 -0.038 -0.007   -0.021 -0.016 -0.018
 H         -0.045 -0.287  0.459    0.210 -0.114 -0.192    0.160 -0.229  0.015
 H          0.304  0.171  0.264   -0.170  0.174  0.391    0.054  0.182  0.341
 H         -0.257 -0.072 -0.026    0.146 -0.350  0.083   -0.017  0.249 -0.041
 H          0.332 -0.067 -0.106    0.063 -0.127 -0.298   -0.242  0.112  0.218
 H          0.076  0.252 -0.323    0.048  0.116  0.189   -0.077 -0.249 -0.002
 TransDip   0.007 -0.006  0.017    0.041  0.007  0.004   -0.017  0.049  0.054

 Mode:                19                     20                     21
 Frequency:      1494.40                3027.98                3043.12
 Force Cnst:      1.3704                 5.6154                 5.6694
 Red. Mass:       1.0415                 1.0395                 1.0391
 IR Active:          YES                    YES                    YES
 IR Intens:       13.205                 25.380                 26.025
 Raman Active:       YES                    YES                    YES
               X      Y      Z        X      Y      Z        X      Y      Z
 C         -0.002  0.019 -0.031   -0.020 -0.042 -0.026   -0.001 -0.002 -0.002
 H          0.023  0.005 -0.068   -0.002 -0.004  0.000    0.002  0.009 -0.005
 C          0.000  0.028 -0.017    0.002  0.001  0.001   -0.002 -0.000 -0.000
 H          0.012 -0.134  0.008   -0.001 -0.002 -0.003    0.001 -0.000  0.005
 H         -0.274 -0.185 -0.074    0.009 -0.004 -0.035   -0.185  0.084  0.615
 C          0.009  0.015 -0.020   -0.002  0.002  0.001    0.043 -0.029 -0.011
 H         -0.102 -0.146  0.369    0.015  0.017  0.012   -0.293 -0.278 -0.199
 H          0.256  0.058  0.053   -0.001 -0.030  0.016   -0.018  0.536 -0.289
 H          0.410 -0.116  0.080   -0.136  0.068  0.622   -0.006  0.005  0.035
 H         -0.355 -0.005 -0.067    0.003  0.585 -0.294    0.001  0.033 -0.016
 H         -0.060 -0.217  0.500    0.361 -0.157 -0.031    0.022 -0.007 -0.001
 TransDip  -0.014 -0.069  0.093   -0.095 -0.108 -0.073    0.139 -0.082 -0.024

 Mode:                22                     23                     24
 Frequency:      3065.31                3102.55                3121.00
 Force Cnst:      5.8851                 6.2585                 6.3448
 Red. Mass:       1.0630                 1.1035                 1.1056
 IR Active:          YES                    YES                    YES
 IR Intens:       29.492                  0.021                  8.760
 Raman Active:       YES                    YES                    YES
               X      Y      Z        X      Y      Z        X      Y      Z
 C         -0.006  0.005  0.001   -0.008 -0.024  0.045    0.011  0.034 -0.064
 H         -0.004  0.638 -0.330    0.007 -0.477  0.231   -0.000 -0.215  0.103
 C          0.016 -0.062 -0.028    0.012  0.032 -0.064    0.005  0.015 -0.028
 H         -0.178  0.092  0.653   -0.148  0.091  0.533   -0.060  0.040  0.230
 H          0.010 -0.002 -0.028    0.061 -0.031 -0.200    0.109 -0.055 -0.360
 C          0.002  0.006  0.004   -0.003 -0.012  0.025   -0.005 -0.021  0.046
 H         -0.040 -0.042 -0.029   -0.015 -0.016 -0.004   -0.033 -0.034 -0.011
 H          0.002 -0.026  0.016   -0.008  0.191 -0.098   -0.012  0.332 -0.171
 H          0.001 -0.001 -0.015    0.084 -0.049 -0.386   -0.116  0.067  0.536
 H         -0.002 -0.021  0.011    0.000  0.343 -0.165   -0.002 -0.480  0.231
 H          0.073 -0.034 -0.008    0.011 -0.010  0.009   -0.012  0.012 -0.011
 TransDip   0.036 -0.154 -0.072    0.003 -0.002  0.002    0.020  0.047 -0.080

 Mode:                25                     26                     27
 Frequency:      3134.86                3138.41                3145.64
 Force Cnst:      6.3961                 6.3832                 6.4228
 Red. Mass:       1.1047                 1.0999                 1.1017
 IR Active:          YES                    YES                    YES
 IR Intens:       69.443                 30.099                 30.601
 Raman Active:       YES                    YES                    YES
               X      Y      Z        X      Y      Z        X      Y      Z
 C          0.000  0.017 -0.025   -0.074  0.050  0.016    0.008 -0.006  0.000
 H          0.005 -0.322  0.157   -0.001 -0.028  0.013   -0.002  0.085 -0.042
 C          0.008  0.022 -0.044   -0.002  0.004  0.006    0.001 -0.008  0.001
 H         -0.102  0.062  0.365    0.020 -0.013 -0.078   -0.008  0.005  0.027
 H         -0.172  0.083  0.545    0.003 -0.003 -0.007   -0.070  0.016  0.199
 C          0.005  0.024 -0.069   -0.005 -0.010  0.000   -0.042 -0.075 -0.032
 H          0.095  0.090  0.051    0.061  0.056  0.041    0.581  0.526  0.383
 H          0.022 -0.455  0.233   -0.002  0.066 -0.036   -0.022  0.353 -0.200
 H         -0.041  0.027  0.203    0.044 -0.022 -0.259   -0.001  0.001  0.014
 H         -0.004 -0.210  0.100   -0.014 -0.241  0.126    0.003  0.041 -0.020
 H          0.044 -0.016 -0.006    0.840 -0.343 -0.059   -0.091  0.037  0.006
 TransDip   0.019  0.107 -0.244   -0.157  0.072  0.032   -0.068 -0.154 -0.055

 STANDARD THERMODYNAMIC QUANTITIES AT   298.15 K  AND     1.00 ATM

   This Molecule has  0 Imaginary Frequencies
   Zero point vibrational energy:       65.111 kcal/mol

   Atom    1 Element C  Has Mass   12.00000
   Atom    2 Element H  Has Mass    1.00783
   Atom    3 Element C  Has Mass   12.00000
   Atom    4 Element H  Has Mass    1.00783
   Atom    5 Element H  Has Mass    1.00783
   Atom    6 Element C  Has Mass   12.00000
   Atom    7 Element H  Has Mass    1.00783
   Atom    8 Element H  Has Mass    1.00783
   Atom    9 Element H  Has Mass    1.00783
   Atom   10 Element H  Has Mass    1.00783
   Atom   11 Element H  Has Mass    1.00783
   Molecular Mass:    44.062640 amu
   Principal axes and moments of inertia in amu*Bohr^2:
                             1           2           3
    Eigenvalues --       61.56486   214.50924   241.85600
          X               0.96122    -0.22626    -0.15765
          Y               0.13148     0.87854    -0.45921
          Z               0.24241     0.42068     0.87422
   Rotational Symmetry Number is   1
   The Molecule is an Asymmetric Top
   Translational Enthalpy:        0.889 kcal/mol
   Rotational Enthalpy:           0.889 kcal/mol
   Vibrational Enthalpy:         66.146 kcal/mol
   gas constant (RT):             0.592 kcal/mol
   Translational Entropy:        37.275  cal/mol.K
   Rotational Entropy:           22.684  cal/mol.K
   Vibrational Entropy:           5.352  cal/mol.K

   Total Enthalpy:               68.516 kcal/mol
   Total Entropy:                65.311  cal/mol.K
Archival summary:
1\1\n0040.mhg0\FREQ\ProcedureUnspecified\BasisUnspecified\38\lbettins\FriJul213:57:182021FriJul213:57:182021\0\\#,FREQ,ProcedureUnspecified,BasisUnspecified,\\0,1\C\H,1,1.10189\H,1,1.10228,2,105.672\C,1,1.52542,2,109.496,3,-118.038,0\H,4,1.09995,1,112.516,2,58.1177,0\H,4,1.1025,1,111.32,2,-62.0165,0\H,4,1.10319,1,111.196,2,177.724,0\C,1,1.52629,2,109.493,3,118.072,0\H,8,1.10025,1,112.131,2,-56.1705,0\H,8,1.10444,1,110.878,2,63.1098,0\H,8,1.10463,1,111.088,2,-175.171,0\\\@

 Total job time:  53.61s(wall), 965.10s(cpu) 
 Fri Jul  2 13:57:18 2021

        *************************************************************
        *                                                           *
        *  Thank you very much for using Q-Chem.  Have a nice day.  *
        *                                                           *
        *************************************************************


