
Running Job 1 of 1 PROP1-2-MFI-freq.in
qchem PROP1-2-MFI-freq.in_31546.0 /scr/lance/134487/qchem31546/ 0
/home/mgcf/software-ws/qchem/qchem_540/exe/qcprog.exe_s PROP1-2-MFI-freq.in_31546.0 /scr/lance/134487/qchem31546/
                  Welcome to Q-Chem
     A Quantum Leap Into The Future Of Chemistry


 Q-Chem 5.4, Q-Chem, Inc., Pleasanton, CA (2021)

 E. Epifanovsky,  A. T. B. Gilbert,  Xintian Feng,  Joonho Lee,  Yuezhi Mao,  
 N. Mardirossian,  P. Pokhilko,  A. White,  M. Wormit,  M. P. Coons,  
 A. L. Dempwolff,  Zhengting Gan,  D. Hait,  P. R. Horn,  L. D. Jacobson,  
 I. Kaliman,  J. Kussmann,  A. W. Lange,  Ka Un Lao,  D. S. Levine,  Jie Liu,  
 S. C. McKenzie,  A. F. Morrison,  K. Nanda,  F. Plasser,  D. R. Rehn,  
 M. L. Vidal,  Zhi-Qiang You,  Ying Zhu,  B. Alam,  B. Albrecht,  
 A. Aldossary,  E. Alguire,  J. H. Andersen,  D. Barton,  K. Begam,  A. Behn,  
 Y. A. Bernard,  E. J. Berquist,  H. Burton,  A. Carreras,  K. Carter-Fenk,  
 R. Chakraborty,  A. D. Chien,  K. D. Closser,  V. Cofer-Shabica,  
 S. Dasgupta,  Jia Deng,  M. de Wergifosse,  M. Diedenhofen,  Hainam Do,  
 S. Ehlert,  Po-Tung Fang,  S. Fatehi,  Qingguo Feng,  J. Gayvert,  
 Qinghui Ge,  G. Gidofalvi,  M. Goldey,  J. Gomes,  C. Gonzalez-Espinoza,  
 S. Gulania,  A. Gunina,  M. W. D. Hanson-Heine,  P. H. P. Harbach,  
 A. W. Hauser,  M. F. Herbst,  M. Hernandez Vera,  M. Hodecker,  
 Z. C. Holden,  S. Houck,  Xunkun Huang,  Kerwin Hui,  B. C. Huynh,  
 M. Ivanov,  Hyunjun Ji,  Hanjie Jiang,  B. Kaduk,  S. Kaehler,  
 K. Khistyaev,  Jaehoon Kim,  P. Klunzinger,  Z. Koczor-Benda,  
 Joong Hoon Koh,  D. Kosenkov,  L. Koulias,  T. Kowalczyk,  C. M. Krauter,  
 K. Kue,  A. Kunitsa,  T. Kus,  A. Landau,  K. V. Lawler,  D. Lefrancois,  
 S. Lehtola,  Rain Li,  Yi-Pei Li,  Jiashu Liang,  M. Liebenthal,  
 Hung-Hsuan Lin,  You-Sheng Lin,  Fenglai Liu,  Kuan-Yu Liu,  
 M. Loipersberger,  A. Luenser,  A. Manjanath,  P. Manohar,  E. Mansoor,  
 S. F. Manzer,  Shan-Ping Mao,  A. V. Marenich,  T. Markovich,  S. Mason,  
 S. A. Maurer,  P. F. McLaughlin,  M. F. S. J. Menger,  J.-M. Mewes,  
 S. A. Mewes,  P. Morgante,  J. W. Mullinax,  T. S. Nguyen-Beck,  
 K. J. Oosterbaan,  G. Paran,  Alexander C. Paul,  Suranjan K. Paul,  
 F. Pavosevic,  Zheng Pei,  S. Prager,  E. I. Proynov,  E. Ramos,  B. Rana,  
 A. E. Rask,  A. Rettig,  R. M. Richard,  F. Rob,  E. Rossomme,  T. Scheele,  
 M. Scheurer,  M. Schneider,  N. Sergueev,  S. M. Sharada,  W. Skomorowski,  
 D. W. Small,  C. J. Stein,  Yu-Chuan Su,  E. J. Sundstrom,  Zhen Tao,  
 J. Thirman,  T. Tsuchimochi,  N. M. Tubman,  S. P. Veccham,  O. Vydrov,  
 J. Wenzel,  J. Witte,  A. Yamada,  Kun Yao,  S. Yeganeh,  S. R. Yost,  
 A. Zech,  Igor Ying Zhang,  Xing Zhang,  Yu Zhang,  D. Zuev,  
 A. Aspuru-Guzik,  A. T. Bell,  N. A. Besley,  K. B. Bravaya,  B. R. Brooks,  
 D. Casanova,  Jeng-Da Chai,  S. Coriani,  C. J. Cramer,  
 A. E. DePrince, III,  R. A. DiStasio Jr.,  A. Dreuw,  B. D. Dunietz,  
 T. R. Furlani,  W. A. Goddard III,  S. Grimme,  S. Hammes-Schiffer,  
 T. Head-Gordon,  W. J. Hehre,  Chao-Ping Hsu,  T.-C. Jagau,  Yousung Jung,  
 A. Klamt,  Jing Kong,  D. S. Lambrecht,  WanZhen Liang,  N. J. Mayhall,  
 C. W. McCurdy,  J. B. Neaton,  C. Ochsenfeld,  J. A. Parkhill,  R. Peverati,  
 V. A. Rassolov,  Yihan Shao,  L. V. Slipchenko,  T. Stauch,  R. P. Steele,  
 J. E. Subotnik,  A. J. W. Thom,  A. Tkatchenko,  D. G. Truhlar,  
 T. Van Voorhis,  T. A. Wesolowski,  K. B. Whaley,  H. L. Woodcock III,  
 P. M. Zimmerman,  S. Faraji,  P. M. W. Gill,  M. Head-Gordon,  
 J. M. Herbert,  A. I. Krylov

 Contributors to earlier versions of Q-Chem not listed above: 
 R. D. Adamson,  B. Austin,  R. Baer,  J. Baker,  G. J. O. Beran,  
 K. Brandhorst,  S. T. Brown,  E. F. C. Byrd,  A. K. Chakraborty,  
 G. K. L. Chan,  Chun-Min Chang,  Yunqing Chen,  C.-L. Cheng,  
 Siu Hung Chien,  D. M. Chipman,  D. L. Crittenden,  H. Dachsel,  
 R. J. Doerksen,  A. D. Dutoi,  R. G. Edgar,  J. Fosso-Tande,  
 L. Fusti-Molnar,  D. Ghosh,  A. Ghysels,  A. Golubeva-Zadorozhnaya,  
 J. Gonthier,  M. S. Gordon,  S. R. Gwaltney,  G. Hawkins,  J. E. Herr,  
 A. Heyden,  S. Hirata,  E. G. Hohenstein,  G. Kedziora,  F. J. Keil,  
 C. Kelley,  Jihan Kim,  R. A. King,  R. Z. Khaliullin,  P. P. Korambath,  
 W. Kurlancheek,  A. Laurent,  A. M. Lee,  M. S. Lee,  S. V. Levchenko,  
 Ching Yeh Lin,  D. Liotard,  E. Livshits,  R. C. Lochan,  I. Lotan,  
 L. A. Martinez-Martinez,  P. E. Maslen,  N. Nair,  D. P. O'Neill,  
 D. Neuhauser,  E. Neuscamman,  C. M. Oana,  R. Olivares-Amaya,  R. Olson,  
 T. M. Perrine,  B. Peters,  P. A. Pieniazek,  A. Prociuk,  Y. M. Rhee,  
 J. Ritchie,  M. A. Rohrdanz,  E. Rosta,  N. J. Russ,  H. F. Schaefer III,  
 M. W. Schmidt,  N. E. Schultz,  S. Sharma,  N. Shenvi,  C. D. Sherrill,  
 A. C. Simmonett,  A. Sodt,  T. Stein,  D. Stuck,  K. S. Thanthiriwatte,  
 V. Vanovschi,  L. Vogt,  Tao Wang,  A. Warshel,  M. A. Watson,  
 C. F. Williams,  Q. Wu,  X. Xu,  Jun Yang,  W. Zhang,  Yan Zhao

 Please cite Q-Chem as follows:
 Y. Shao et al., Mol. Phys. 113, 184-215 (2015)
 DOI: 10.1080/00268976.2014.952696

 Q-Chem 5.4.0 for Intel X86 EM64T Linux

 Parts of Q-Chem use Armadillo 9.800.1 (Horizon Scraper).
 http://arma.sourceforge.net/

 Q-Chem begins on Fri Jun 25 10:25:22 2021  

 Host: 
0

     Scratch files written to /scr/lance/134487/qchem31546//
 May1621 |scratch|qcdevops|jenkins|workspace|build_RNUM -1
 Processing $rem in /home/mgcf/software-ws/qchem/qchem_540/config/preferences:
 Processing $rem in /home/lance/.qchemrc:
Applying user defined connections for MM calculations

 Checking the input file for inconsistencies... 	...done.

--------------------------------------------------------------
User input:
--------------------------------------------------------------
$rem
jobtype		freq
gui     	2
!vibman_print	4
max_scf_cycles  500
geom_opt_max_cycles 999
exchange 	omegab97x-d
basis def2-svp
!basis		6-311+G(3df,3pd)
scf_algorithm 	rca_diis
QM_MM_INTERFACE Zeolite
force_field   	charmm27
user_connect   	true
symmetry  	 off
sym_ignore   	true
print_input   	true
qmmm_print   	false
qm_mm   	true
model_system_mult 1
qmmm_full_hessian 	false
mem_total   10000000
mem_static   10000
pop_mulliken 	false
!nbo	true
isotopes true
$end

$qm_atoms
1
2
3
4
5
6
7
8
9
10
11
12
13
14
15
16
17
18
19
20
21
22
23
24
25
26
27
28
29
30
31
32
33
34
35
36
37
38
39
40
41
42
43
44
45
46
47
48
49
50
51
52
53
54
55
56
57
58
59
60
61
62
$end

$isotopes
1 0
32
63 100000000000000000
64 100000000000000000
65 100000000000000000
66 100000000000000000
67 100000000000000000
68 100000000000000000
69 100000000000000000
70 100000000000000000
71 100000000000000000
72 100000000000000000
73 100000000000000000
74 100000000000000000
75 100000000000000000
76 100000000000000000
77 100000000000000000
78 100000000000000000
79 100000000000000000
80 100000000000000000
81 100000000000000000
82 100000000000000000
83 100000000000000000
84 100000000000000000
85 100000000000000000
86 100000000000000000
87 100000000000000000
88 100000000000000000
89 100000000000000000
90 100000000000000000
91 100000000000000000
92 100000000000000000
93 100000000000000000
94 100000000000000000
$end

$comment
Atom   type   and   names
-1   Oxygen   in   SiO4
-2   Silicon   in   SiO4
-3   H for terminal in SiO4
-23  Si right out of T5 and has one connections to QM
-22  Si right out of T5 and has two connections to QM
-21  Si right out of T5 and has three connections to QM
$end


$force_field_params
NumAtomTypes   3000
AtomType   -1   -0.35   1.77   -0.018
AtomType   -13   -0.35   1.77   -0.018
AtomType   -2   0.7   2.2   -0.047
AtomType   -3   -0.175   0.01   0
AtomType   -4    0.175   0.01   0
AtomType   -23   0.525   2.2   -0.047
AtomType   -22   0.35   2.2   -0.047
AtomType   -21   0.175   2.2   -0.047
AtomType   -111   0   1.34   -0.024
AtomType   -112   0   1.34   -0.035
AtomType   -121   0   2.05   -0.078
AtomType   -122   0   2.01   -0.056
AtomType   -912   0   2.175   -0.055
AtomType   -916   0   1.77   -0.1521
AtomType   -901   0   1.32   -0.022
AtomType   -801   0   0.2245   -0.046
AtomType    -31 0   1.9924  -0.07
AtomType    -32 0   2.09    -0.068
AtomType    -33 0   2.08    -0.064
AtomType    -34 0   1.87    -0.18
AtomType    -35 0   2.00    -0.032
AtomType    -41 0   0.2245  -0.046
AtomType    -42 0   0.87    -0.012
AtomType    -43 0   1.1 -0.046
AtomType    -44 0   1.3582  -0.03
AtomType    -45 0   1.26    -0.026
AtomType    -46 0   1.25    -0.031
AtomType    -47 0   1.34    -0.045
AtomType    -51 0   1.765   -0.1921
AtomType    -61 0   1.98    -0.07
AtomType    -62 0   1.89    -0.06
AtomType    -63 0   1.79    -0.18
Bond   -1   -2   304   1.682
Bond   -1   -3   204   1.489
Bond   -2   -3   100   1.45
Angle   -1   -2   -1   34   150
Angle   -2   -1   -2   30   121.5
Angle   -3   -1   -2   44   118
Angle   -1   -2   -3   30   109.5
Torsion   -2   -1   -2   -1   0.1   120   3
Torsion   -2   -1   -2   -3   0.3   120   3
Bond   -121   -122   222.5   1.528
Bond   -121   -121   222.5   1.528
Bond   -122   -122   222.5   1.528
Bond   -111   -121   309   1.089
Bond   -112   -122   309   1.089
Angle   -121   -122   -122   58   115
Angle   -121   -121   -122   58   115
Angle   -121   -121   -121   58   115
Angle   -122   -122   -122   58   115
Angle   -111   -121   -111   35.5   108.4
Angle   -111   -121   -121   35.5   108.4
Angle   -111   -121   -122   35.5   108.4
Angle   -112   -122   -112   35.5   108.4
Angle   -112   -122   -121   35.5   108.4
Angle   -112   -122   -122   35.5   108.4
Torsion   -111   -121   -122   -122   0.16   120   3
Torsion   -111   -121   -121   -121   0.16   120   3
Torsion   -111   -121   -121   -111   0.16   120   3
Torsion   -111   -121   -122   -112   0.16   120   3
Torsion   -112   -122   -122   -122   95.16   180   2
Torsion   -112   -122   -122   -112   95.16   180   2
Torsion   -121   -122   -122   -122   95.16   180   2
Torsion   -121   -122   -122   -112   95.16   180   2
Torsion   -122   -122   -122   -112   95.16   180   2
Torsion   -112   -122   -122   -121   95.16   180   2
Bond   -13   -1   304   1.682
Bond   -13   -121   222.5   1.55
Angle   -13   -121   -121   40   111
Angle   -13   -121   -1   34   150
Angle   -13   -121   -111   35.5   115
Torsion   -1   -13   -121   -121   0.2   120   3
Torsion   -1   -13   -121   -111   0.2   120   3
Bond   -901   -912   342.991   1.093
Bond   -801   -916   560.905   0.972
Bond   -916   -912   363.214   1.418
Bond   -912   -912   306.432   1.508
Angle   -916   -912   -912   71.39   108.133
Angle   -916   -912   -916   83.192   111.368
Angle   -916   -912   -901   56.205   108.577
Angle   -912   -912   -901   45.77   110.549
Angle   -912   -916   -912   86.143   106.926
Angle   -912   -912   -912   61.243   109.608
Angle   -912   -916   -801   57.069   106.503
Angle   -901   -912   -901   37.134   108.836
Torsion   -912   -916   -912   -912   -0.341   0   1
Torsion   -912   -916   -912   -912   0.378   180   2
Torsion   -912   -916   -912   -912   0.378   0   3
Torsion   -912   -916   -912   -901   0.285   0   1
Torsion   -912   -916   -912   -901   0.16   180   2
Torsion   -912   -916   -912   -901   0.285   0   3
Torsion   -912   -912   -912   -912   0.051   0   1
Torsion   -912   -912   -912   -912   0.341   180   2
Torsion   -912   -912   -912   -912   0.166   0   3
Torsion   -912   -912   -912   -916   -0.344   0   1
Torsion   -912   -912   -912   -916   0.878   180   2
Torsion   -912   -912   -912   -916   0.238   0   3
Torsion   -912   -912   -912   -901   0.32   0   1
Torsion   -912   -912   -912   -901   -0.315   180   2
Torsion   -912   -912   -912   -901   0.132   0   3
Torsion   -912   -912   -916   -801   0.135   180   2
Torsion   -912   -912   -916   -801   0.118   0   3
Torsion   -916   -912   -912   -916   0.204   0   1
Torsion   -916   -912   -912   -916   0.699   180   2
Torsion   -916   -912   -912   -916   0.48   0   3
Torsion   -916   -912   -912   -901   -0.327   0   1
Torsion   -916   -912   -912   -901   0.536   180   2
Torsion   -916   -912   -912   -901   0.14   0   3
Torsion   -916   -912   -916   -801   0.744   0   1
Torsion   -916   -912   -916   -801   -1.7   180   2
Torsion   -916   -912   -916   -801   -0.16   0   3
Torsion   -912   -916   -912   -916   0.115   0   1
Torsion   -912   -916   -912   -916   -0.355   180   2
Torsion   -912   -916   -912   -916   0.361   0   3
Torsion   -901   -912   -912   -901   0.142   0   1
Torsion   -901   -912   -912   -901   -0.693   180   2
Torsion   -901   -912   -912   -901   0.157   0   3
Torsion   -901   -912   -916   -801   0.298   0   1
Torsion   -901   -912   -916   -801   -0.138   180   2
Torsion   -901   -912   -916   -801   0.173   0   3
Imptor	-912   -912   -916   -916       0.000  0     0.00
Imptor	-912   -916   -916   -901     0.000  0     0.00
Imptor	-912   -912   -916   -912       0.000  0     0.00
Imptor	-912   -912   -916   -901     0.000  0     0.00
Imptor	-912   -912   -912   -916       0.000  0     0.00
Imptor	-912   -912   -912   -901     0.000  0     0.00
Imptor	-912   -916   -912   -901     0.000  0     0.00
$end

$opt
fixed
63 XYZ
64 XYZ
65 XYZ
66 XYZ
67 XYZ
68 XYZ
69 XYZ
70 XYZ
71 XYZ
72 XYZ
73 XYZ
74 XYZ
75 XYZ
76 XYZ
77 XYZ
78 XYZ
79 XYZ
80 XYZ
81 XYZ
82 XYZ
83 XYZ
84 XYZ
85 XYZ
86 XYZ
87 XYZ
88 XYZ
89 XYZ
90 XYZ
91 XYZ
92 XYZ
93 XYZ
94 XYZ
95 XYZ
96 XYZ
97 XYZ
98 XYZ
99 XYZ
100 XYZ
101 XYZ
102 XYZ
103 XYZ
104 XYZ
105 XYZ
106 XYZ
107 XYZ
108 XYZ
109 XYZ
110 XYZ
111 XYZ
112 XYZ
113 XYZ
114 XYZ
115 XYZ
116 XYZ
117 XYZ
118 XYZ
119 XYZ
120 XYZ
121 XYZ
122 XYZ
123 XYZ
124 XYZ
125 XYZ
126 XYZ
127 XYZ
128 XYZ
129 XYZ
130 XYZ
131 XYZ
132 XYZ
133 XYZ
134 XYZ
135 XYZ
136 XYZ
137 XYZ
138 XYZ
139 XYZ
140 XYZ
141 XYZ
142 XYZ
143 XYZ
144 XYZ
145 XYZ
146 XYZ
147 XYZ
148 XYZ
149 XYZ
150 XYZ
151 XYZ
152 XYZ
153 XYZ
154 XYZ
155 XYZ
156 XYZ
157 XYZ
158 XYZ
159 XYZ
160 XYZ
161 XYZ
162 XYZ
163 XYZ
164 XYZ
165 XYZ
166 XYZ
167 XYZ
168 XYZ
169 XYZ
170 XYZ
171 XYZ
172 XYZ
173 XYZ
174 XYZ
175 XYZ
176 XYZ
177 XYZ
178 XYZ
179 XYZ
180 XYZ
181 XYZ
182 XYZ
183 XYZ
184 XYZ
185 XYZ
186 XYZ
187 XYZ
188 XYZ
189 XYZ
190 XYZ
191 XYZ
192 XYZ
193 XYZ
194 XYZ
195 XYZ
196 XYZ
197 XYZ
198 XYZ
199 XYZ
200 XYZ
201 XYZ
202 XYZ
203 XYZ
204 XYZ
205 XYZ
206 XYZ
207 XYZ
208 XYZ
209 XYZ
210 XYZ
211 XYZ
212 XYZ
213 XYZ
214 XYZ
215 XYZ
216 XYZ
217 XYZ
218 XYZ
219 XYZ
220 XYZ
221 XYZ
222 XYZ
223 XYZ
224 XYZ
225 XYZ
226 XYZ
227 XYZ
228 XYZ
229 XYZ
230 XYZ
231 XYZ
232 XYZ
233 XYZ
234 XYZ
235 XYZ
236 XYZ
237 XYZ
238 XYZ
239 XYZ
240 XYZ
241 XYZ
242 XYZ
243 XYZ
244 XYZ
245 XYZ
246 XYZ
247 XYZ
248 XYZ
249 XYZ
250 XYZ
251 XYZ
252 XYZ
253 XYZ
254 XYZ
255 XYZ
256 XYZ
257 XYZ
258 XYZ
259 XYZ
260 XYZ
261 XYZ
262 XYZ
263 XYZ
264 XYZ
265 XYZ
266 XYZ
267 XYZ
268 XYZ
269 XYZ
270 XYZ
271 XYZ
272 XYZ
273 XYZ
274 XYZ
275 XYZ
276 XYZ
277 XYZ
278 XYZ
279 XYZ
280 XYZ
281 XYZ
282 XYZ
283 XYZ
284 XYZ
285 XYZ
286 XYZ
287 XYZ
288 XYZ
289 XYZ
290 XYZ
291 XYZ
292 XYZ
293 XYZ
294 XYZ
295 XYZ
296 XYZ
297 XYZ
298 XYZ
299 XYZ
300 XYZ
301 XYZ
302 XYZ
303 XYZ
304 XYZ
305 XYZ
306 XYZ
307 XYZ
308 XYZ
309 XYZ
310 XYZ
311 XYZ
312 XYZ
313 XYZ
314 XYZ
315 XYZ
316 XYZ
317 XYZ
318 XYZ
319 XYZ
320 XYZ
321 XYZ
322 XYZ
323 XYZ
324 XYZ
325 XYZ
326 XYZ
327 XYZ
328 XYZ
329 XYZ
330 XYZ
331 XYZ
332 XYZ
333 XYZ
334 XYZ
335 XYZ
336 XYZ
337 XYZ
338 XYZ
339 XYZ
340 XYZ
341 XYZ
342 XYZ
343 XYZ
344 XYZ
345 XYZ
346 XYZ
347 XYZ
348 XYZ
349 XYZ
350 XYZ
351 XYZ
352 XYZ
353 XYZ
354 XYZ
355 XYZ
356 XYZ
357 XYZ
358 XYZ
359 XYZ
360 XYZ
361 XYZ
362 XYZ
363 XYZ
364 XYZ
365 XYZ
366 XYZ
367 XYZ
368 XYZ
369 XYZ
370 XYZ
371 XYZ
372 XYZ
373 XYZ
374 XYZ
375 XYZ
376 XYZ
377 XYZ
378 XYZ
379 XYZ
380 XYZ
381 XYZ
382 XYZ
383 XYZ
384 XYZ
385 XYZ
386 XYZ
387 XYZ
388 XYZ
389 XYZ
390 XYZ
391 XYZ
392 XYZ
393 XYZ
394 XYZ
395 XYZ
396 XYZ
397 XYZ
398 XYZ
399 XYZ
400 XYZ
401 XYZ
402 XYZ
403 XYZ
404 XYZ
405 XYZ
406 XYZ
407 XYZ
408 XYZ
409 XYZ
410 XYZ
411 XYZ
412 XYZ
413 XYZ
414 XYZ
415 XYZ
416 XYZ
417 XYZ
418 XYZ
419 XYZ
420 XYZ
421 XYZ
422 XYZ
423 XYZ
424 XYZ
425 XYZ
426 XYZ
427 XYZ
428 XYZ
429 XYZ
430 XYZ
431 XYZ
432 XYZ
433 XYZ
434 XYZ
435 XYZ
436 XYZ
437 XYZ
438 XYZ
439 XYZ
440 XYZ
441 XYZ
442 XYZ
443 XYZ
444 XYZ
445 XYZ
446 XYZ
447 XYZ
448 XYZ
449 XYZ
450 XYZ
451 XYZ
452 XYZ
453 XYZ
454 XYZ
455 XYZ
456 XYZ
457 XYZ
458 XYZ
459 XYZ
460 XYZ
461 XYZ
462 XYZ
463 XYZ
464 XYZ
465 XYZ
466 XYZ
467 XYZ
468 XYZ
469 XYZ
470 XYZ
471 XYZ
472 XYZ
473 XYZ
474 XYZ
475 XYZ
476 XYZ
477 XYZ
478 XYZ
479 XYZ
480 XYZ
481 XYZ
482 XYZ
483 XYZ
484 XYZ
485 XYZ
486 XYZ
487 XYZ
488 XYZ
489 XYZ
490 XYZ
491 XYZ
492 XYZ
493 XYZ
494 XYZ
495 XYZ
496 XYZ
497 XYZ
498 XYZ
499 XYZ
500 XYZ
501 XYZ
502 XYZ
503 XYZ
504 XYZ
505 XYZ
506 XYZ
507 XYZ
508 XYZ
509 XYZ
510 XYZ
511 XYZ
512 XYZ
513 XYZ
514 XYZ
515 XYZ
516 XYZ
517 XYZ
518 XYZ
519 XYZ
520 XYZ
521 XYZ
522 XYZ
523 XYZ
524 XYZ
525 XYZ
526 XYZ
527 XYZ
528 XYZ
529 XYZ
530 XYZ
531 XYZ
532 XYZ
533 XYZ
534 XYZ
535 XYZ
536 XYZ
537 XYZ
538 XYZ
539 XYZ
540 XYZ
541 XYZ
542 XYZ
543 XYZ
544 XYZ
545 XYZ
546 XYZ
547 XYZ
548 XYZ
549 XYZ
550 XYZ
551 XYZ
552 XYZ
553 XYZ
554 XYZ
555 XYZ
556 XYZ
557 XYZ
558 XYZ
559 XYZ
560 XYZ
561 XYZ
562 XYZ
563 XYZ
564 XYZ
565 XYZ
566 XYZ
567 XYZ
568 XYZ
569 XYZ
570 XYZ
571 XYZ
572 XYZ
573 XYZ
574 XYZ
575 XYZ
576 XYZ
577 XYZ
578 XYZ
579 XYZ
580 XYZ
581 XYZ
582 XYZ
583 XYZ
584 XYZ
585 XYZ
586 XYZ
587 XYZ
588 XYZ
589 XYZ
590 XYZ
591 XYZ
592 XYZ
593 XYZ
594 XYZ
595 XYZ
596 XYZ
597 XYZ
598 XYZ
599 XYZ
600 XYZ
601 XYZ
602 XYZ
603 XYZ
604 XYZ
605 XYZ
606 XYZ
607 XYZ
608 XYZ
609 XYZ
610 XYZ
611 XYZ
612 XYZ
613 XYZ
614 XYZ
615 XYZ
616 XYZ
617 XYZ
618 XYZ
619 XYZ
620 XYZ
621 XYZ
622 XYZ
623 XYZ
624 XYZ
625 XYZ
626 XYZ
627 XYZ
628 XYZ
629 XYZ
630 XYZ
631 XYZ
632 XYZ
633 XYZ
634 XYZ
635 XYZ
636 XYZ
637 XYZ
638 XYZ
639 XYZ
640 XYZ
641 XYZ
642 XYZ
643 XYZ
644 XYZ
645 XYZ
646 XYZ
647 XYZ
648 XYZ
649 XYZ
650 XYZ
651 XYZ
652 XYZ
653 XYZ
654 XYZ
655 XYZ
656 XYZ
657 XYZ
658 XYZ
659 XYZ
660 XYZ
661 XYZ
662 XYZ
663 XYZ
664 XYZ
665 XYZ
666 XYZ
667 XYZ
668 XYZ
669 XYZ
670 XYZ
671 XYZ
672 XYZ
673 XYZ
674 XYZ
675 XYZ
676 XYZ
677 XYZ
678 XYZ
679 XYZ
680 XYZ
681 XYZ
682 XYZ
683 XYZ
684 XYZ
685 XYZ
686 XYZ
687 XYZ
688 XYZ
689 XYZ
690 XYZ
691 XYZ
692 XYZ
693 XYZ
694 XYZ
695 XYZ
696 XYZ
697 XYZ
698 XYZ
699 XYZ
700 XYZ
701 XYZ
702 XYZ
703 XYZ
704 XYZ
705 XYZ
706 XYZ
707 XYZ
708 XYZ
709 XYZ
710 XYZ
711 XYZ
712 XYZ
713 XYZ
714 XYZ
715 XYZ
716 XYZ
717 XYZ
718 XYZ
719 XYZ
720 XYZ
721 XYZ
722 XYZ
723 XYZ
724 XYZ
725 XYZ
726 XYZ
727 XYZ
728 XYZ
729 XYZ
730 XYZ
731 XYZ
732 XYZ
733 XYZ
734 XYZ
735 XYZ
736 XYZ
737 XYZ
738 XYZ
739 XYZ
740 XYZ
741 XYZ
742 XYZ
743 XYZ
744 XYZ
745 XYZ
746 XYZ
747 XYZ
748 XYZ
749 XYZ
750 XYZ
751 XYZ
752 XYZ
753 XYZ
754 XYZ
755 XYZ
756 XYZ
757 XYZ
758 XYZ
759 XYZ
760 XYZ
761 XYZ
762 XYZ
763 XYZ
764 XYZ
765 XYZ
766 XYZ
767 XYZ
768 XYZ
769 XYZ
770 XYZ
771 XYZ
772 XYZ
773 XYZ
774 XYZ
775 XYZ
776 XYZ
777 XYZ
778 XYZ
779 XYZ
780 XYZ
781 XYZ
782 XYZ
783 XYZ
784 XYZ
785 XYZ
786 XYZ
787 XYZ
788 XYZ
789 XYZ
790 XYZ
791 XYZ
792 XYZ
793 XYZ
794 XYZ
795 XYZ
796 XYZ
797 XYZ
798 XYZ
799 XYZ
800 XYZ
801 XYZ
802 XYZ
803 XYZ
804 XYZ
805 XYZ
806 XYZ
807 XYZ
808 XYZ
809 XYZ
810 XYZ
811 XYZ
812 XYZ
813 XYZ
814 XYZ
815 XYZ
816 XYZ
817 XYZ
818 XYZ
819 XYZ
820 XYZ
821 XYZ
822 XYZ
823 XYZ
824 XYZ
825 XYZ
826 XYZ
827 XYZ
828 XYZ
829 XYZ
830 XYZ
831 XYZ
832 XYZ
833 XYZ
834 XYZ
835 XYZ
836 XYZ
837 XYZ
838 XYZ
839 XYZ
840 XYZ
841 XYZ
842 XYZ
843 XYZ
844 XYZ
845 XYZ
846 XYZ
847 XYZ
848 XYZ
849 XYZ
850 XYZ
851 XYZ
852 XYZ
853 XYZ
854 XYZ
855 XYZ
856 XYZ
857 XYZ
858 XYZ
859 XYZ
860 XYZ
861 XYZ
862 XYZ
863 XYZ
864 XYZ
865 XYZ
866 XYZ
867 XYZ
868 XYZ
869 XYZ
870 XYZ
871 XYZ
872 XYZ
873 XYZ
874 XYZ
875 XYZ
876 XYZ
877 XYZ
878 XYZ
879 XYZ
880 XYZ
881 XYZ
882 XYZ
883 XYZ
884 XYZ
885 XYZ
886 XYZ
887 XYZ
888 XYZ
889 XYZ
890 XYZ
891 XYZ
892 XYZ
893 XYZ
894 XYZ
895 XYZ
896 XYZ
897 XYZ
898 XYZ
899 XYZ
900 XYZ
901 XYZ
902 XYZ
903 XYZ
904 XYZ
905 XYZ
906 XYZ
907 XYZ
908 XYZ
909 XYZ
910 XYZ
911 XYZ
912 XYZ
913 XYZ
914 XYZ
915 XYZ
916 XYZ
917 XYZ
918 XYZ
919 XYZ
920 XYZ
921 XYZ
922 XYZ
923 XYZ
924 XYZ
925 XYZ
926 XYZ
927 XYZ
928 XYZ
929 XYZ
930 XYZ
931 XYZ
932 XYZ
933 XYZ
934 XYZ
935 XYZ
936 XYZ
937 XYZ
938 XYZ
939 XYZ
940 XYZ
941 XYZ
942 XYZ
943 XYZ
944 XYZ
945 XYZ
946 XYZ
947 XYZ
948 XYZ
949 XYZ
950 XYZ
951 XYZ
952 XYZ
953 XYZ
954 XYZ
955 XYZ
956 XYZ
957 XYZ
958 XYZ
959 XYZ
960 XYZ
961 XYZ
962 XYZ
963 XYZ
964 XYZ
965 XYZ
966 XYZ
967 XYZ
968 XYZ
969 XYZ
970 XYZ
971 XYZ
972 XYZ
973 XYZ
974 XYZ
975 XYZ
976 XYZ
977 XYZ
978 XYZ
979 XYZ
980 XYZ
981 XYZ
982 XYZ
983 XYZ
984 XYZ
985 XYZ
986 XYZ
987 XYZ
988 XYZ
989 XYZ
990 XYZ
991 XYZ
992 XYZ
993 XYZ
994 XYZ
995 XYZ
996 XYZ
997 XYZ
998 XYZ
999 XYZ
1000 XYZ
1001 XYZ
1002 XYZ
1003 XYZ
1004 XYZ
1005 XYZ
1006 XYZ
1007 XYZ
1008 XYZ
1009 XYZ
1010 XYZ
1011 XYZ
1012 XYZ
1013 XYZ
1014 XYZ
1015 XYZ
1016 XYZ
1017 XYZ
1018 XYZ
1019 XYZ
1020 XYZ
1021 XYZ
1022 XYZ
1023 XYZ
1024 XYZ
1025 XYZ
1026 XYZ
1027 XYZ
1028 XYZ
1029 XYZ
1030 XYZ
1031 XYZ
1032 XYZ
1033 XYZ
1034 XYZ
1035 XYZ
1036 XYZ
1037 XYZ
1038 XYZ
1039 XYZ
1040 XYZ
1041 XYZ
1042 XYZ
1043 XYZ
1044 XYZ
1045 XYZ
1046 XYZ
1047 XYZ
1048 XYZ
1049 XYZ
1050 XYZ
1051 XYZ
1052 XYZ
1053 XYZ
1054 XYZ
1055 XYZ
1056 XYZ
1057 XYZ
1058 XYZ
1059 XYZ
1060 XYZ
1061 XYZ
1062 XYZ
1063 XYZ
1064 XYZ
1065 XYZ
1066 XYZ
1067 XYZ
1068 XYZ
1069 XYZ
1070 XYZ
1071 XYZ
1072 XYZ
1073 XYZ
1074 XYZ
1075 XYZ
1076 XYZ
1077 XYZ
1078 XYZ
1079 XYZ
1080 XYZ
1081 XYZ
1082 XYZ
1083 XYZ
1084 XYZ
1085 XYZ
1086 XYZ
1087 XYZ
1088 XYZ
1089 XYZ
1090 XYZ
1091 XYZ
1092 XYZ
1093 XYZ
1094 XYZ
1095 XYZ
1096 XYZ
1097 XYZ
1098 XYZ
1099 XYZ
1100 XYZ
1101 XYZ
1102 XYZ
1103 XYZ
1104 XYZ
1105 XYZ
1106 XYZ
1107 XYZ
1108 XYZ
1109 XYZ
1110 XYZ
1111 XYZ
1112 XYZ
1113 XYZ
1114 XYZ
1115 XYZ
1116 XYZ
1117 XYZ
1118 XYZ
1119 XYZ
1120 XYZ
1121 XYZ
1122 XYZ
1123 XYZ
1124 XYZ
1125 XYZ
1126 XYZ
1127 XYZ
1128 XYZ
1129 XYZ
1130 XYZ
1131 XYZ
1132 XYZ
1133 XYZ
1134 XYZ
1135 XYZ
1136 XYZ
1137 XYZ
1138 XYZ
1139 XYZ
1140 XYZ
1141 XYZ
1142 XYZ
1143 XYZ
1144 XYZ
1145 XYZ
1146 XYZ
1147 XYZ
1148 XYZ
1149 XYZ
1150 XYZ
1151 XYZ
1152 XYZ
1153 XYZ
1154 XYZ
1155 XYZ
1156 XYZ
1157 XYZ
1158 XYZ
1159 XYZ
1160 XYZ
1161 XYZ
1162 XYZ
1163 XYZ
1164 XYZ
1165 XYZ
1166 XYZ
1167 XYZ
1168 XYZ
1169 XYZ
1170 XYZ
1171 XYZ
1172 XYZ
1173 XYZ
1174 XYZ
1175 XYZ
1176 XYZ
1177 XYZ
1178 XYZ
1179 XYZ
1180 XYZ
1181 XYZ
1182 XYZ
1183 XYZ
1184 XYZ
1185 XYZ
1186 XYZ
1187 XYZ
1188 XYZ
1189 XYZ
1190 XYZ
1191 XYZ
1192 XYZ
1193 XYZ
1194 XYZ
1195 XYZ
1196 XYZ
1197 XYZ
1198 XYZ
1199 XYZ
1200 XYZ
1201 XYZ
1202 XYZ
1203 XYZ
1204 XYZ
1205 XYZ
1206 XYZ
1207 XYZ
1208 XYZ
1209 XYZ
1210 XYZ
1211 XYZ
1212 XYZ
1213 XYZ
1214 XYZ
1215 XYZ
1216 XYZ
1217 XYZ
1218 XYZ
1219 XYZ
1220 XYZ
1221 XYZ
1222 XYZ
1223 XYZ
1224 XYZ
1225 XYZ
1226 XYZ
1227 XYZ
1228 XYZ
1229 XYZ
1230 XYZ
1231 XYZ
1232 XYZ
1233 XYZ
1234 XYZ
1235 XYZ
1236 XYZ
1237 XYZ
1238 XYZ
1239 XYZ
1240 XYZ
1241 XYZ
1242 XYZ
1243 XYZ
1244 XYZ
1245 XYZ
1246 XYZ
1247 XYZ
1248 XYZ
1249 XYZ
1250 XYZ
1251 XYZ
1252 XYZ
1253 XYZ
1254 XYZ
1255 XYZ
1256 XYZ
1257 XYZ
1258 XYZ
1259 XYZ
1260 XYZ
1261 XYZ
1262 XYZ
1263 XYZ
1264 XYZ
1265 XYZ
1266 XYZ
1267 XYZ
1268 XYZ
1269 XYZ
1270 XYZ
1271 XYZ
1272 XYZ
1273 XYZ
1274 XYZ
1275 XYZ
1276 XYZ
1277 XYZ
1278 XYZ
1279 XYZ
1280 XYZ
1281 XYZ
1282 XYZ
1283 XYZ
1284 XYZ
1285 XYZ
1286 XYZ
1287 XYZ
1288 XYZ
1289 XYZ
1290 XYZ
1291 XYZ
1292 XYZ
1293 XYZ
1294 XYZ
1295 XYZ
1296 XYZ
1297 XYZ
1298 XYZ
1299 XYZ
1300 XYZ
1301 XYZ
1302 XYZ
1303 XYZ
1304 XYZ
1305 XYZ
1306 XYZ
1307 XYZ
1308 XYZ
1309 XYZ
1310 XYZ
1311 XYZ
1312 XYZ
1313 XYZ
1314 XYZ
1315 XYZ
1316 XYZ
1317 XYZ
1318 XYZ
1319 XYZ
1320 XYZ
1321 XYZ
1322 XYZ
1323 XYZ
1324 XYZ
1325 XYZ
1326 XYZ
1327 XYZ
1328 XYZ
1329 XYZ
1330 XYZ
1331 XYZ
1332 XYZ
1333 XYZ
1334 XYZ
1335 XYZ
1336 XYZ
1337 XYZ
1338 XYZ
1339 XYZ
1340 XYZ
1341 XYZ
1342 XYZ
1343 XYZ
1344 XYZ
1345 XYZ
1346 XYZ
1347 XYZ
1348 XYZ
1349 XYZ
1350 XYZ
1351 XYZ
1352 XYZ
1353 XYZ
1354 XYZ
1355 XYZ
1356 XYZ
1357 XYZ
1358 XYZ
1359 XYZ
1360 XYZ
1361 XYZ
1362 XYZ
1363 XYZ
1364 XYZ
1365 XYZ
1366 XYZ
1367 XYZ
1368 XYZ
1369 XYZ
1370 XYZ
1371 XYZ
1372 XYZ
1373 XYZ
1374 XYZ
1375 XYZ
1376 XYZ
1377 XYZ
1378 XYZ
1379 XYZ
1380 XYZ
1381 XYZ
1382 XYZ
1383 XYZ
1384 XYZ
1385 XYZ
1386 XYZ
1387 XYZ
1388 XYZ
1389 XYZ
1390 XYZ
1391 XYZ
1392 XYZ
1393 XYZ
1394 XYZ
1395 XYZ
1396 XYZ
1397 XYZ
1398 XYZ
1399 XYZ
1400 XYZ
1401 XYZ
1402 XYZ
1403 XYZ
1404 XYZ
1405 XYZ
1406 XYZ
1407 XYZ
1408 XYZ
1409 XYZ
1410 XYZ
1411 XYZ
1412 XYZ
1413 XYZ
1414 XYZ
1415 XYZ
1416 XYZ
1417 XYZ
1418 XYZ
1419 XYZ
1420 XYZ
1421 XYZ
1422 XYZ
1423 XYZ
1424 XYZ
1425 XYZ
1426 XYZ
1427 XYZ
1428 XYZ
1429 XYZ
1430 XYZ
1431 XYZ
1432 XYZ
1433 XYZ
1434 XYZ
1435 XYZ
1436 XYZ
1437 XYZ
1438 XYZ
1439 XYZ
1440 XYZ
1441 XYZ
1442 XYZ
1443 XYZ
endfixed
$end

$molecule
0 1
C        16.4931036195    5.1375869538    8.4617997314	 0	 9	 10	 11	 3
H        14.8511072342    6.1072205722    9.4826156312	 0	 3	 0	 0	 0
C        15.0175843055    5.2257158461    8.8421050990	 0	 1	 2	 4	 6
H        14.7439939570    4.3541333969    9.4582632005	 0	 3	 0	 0	 0
H        14.3251604887    6.1829702792    7.0076913253	 0	 6	 0	 0	 0
C        14.1017334700    5.2958457274    7.6242303306	 0	 3	 5	 7	 8
H        13.0389156691    5.3623440450    7.8997181879	 0	 6	 0	 0	 0
H        14.2145761220    4.4040017593    6.9859551184	 0	 6	 0	 0	 0
H        16.8174938700    6.0414214224    7.9158522677	 0	 1	 0	 0	 0
H        16.6864463231    4.2463280588    7.8388542326	 0	 1	 0	 0	 0
H        17.1445456355    5.0558972075    9.3446917898	 0	 1	 0	 0	 0
H        16.2039599350    5.1977743224    5.9742537840	 0	 14	 0	 0	 0
Al       16.4888467820    3.4717365228    4.3112133394	 0	 17	 14	 15	 16
O        16.3450963791    5.2628201485    5.0105839221	 0	 18	 12	 13	 0
O        18.0946446588    3.2255336765    3.7850847491	 0	 19	 13	 0	 0
O        15.3312552570    3.3630147908    3.0487753349	 0	 20	 13	 0	 0
O        16.0537386653    2.6637844165    5.7684285093	 0	 13	 21	 0	 0
Si       16.5508419379    6.8626148722    4.4594761216	 0	 22	 14	 23	 24
Si       18.8669588544    2.6123684994    2.4808937701	 0	 63	 65	 15	 64
Si       13.9245060309    2.9310892798    2.3825191543	 0	 25	 66	 67	 16
Si       15.6778289132    1.2058391905    6.3475620020	 0	 17	 26	 27	 68
O        15.5065679129    7.2013424530    3.2721923529	 0	 18	 28	 0	 0
O        16.3137120185    7.7482623088    5.7900497042	 0	 18	 29	 0	 0
O        18.0526439498    7.0121601845    3.8963788249	 0	 18	 30	 0	 0
O        12.6812008396    3.7939467585    3.0580606704	 0	 20	 31	 0	 0
O        14.0386789621    1.1194389020    6.5417255955	 0	 21	 32	 0	 0
O        16.3944244428    1.0085075278    7.8154477322	 0	 33	 21	 0	 0
Si       14.1150745466    7.7848296023    2.5876669933	 0	 35	 22	 71	 72
Si       15.9071662368    9.1365796831    6.5723385836	 0	 41	 73	 38	 23
Si       18.9082787228    7.6504250874    2.6246731777	 0	 74	 75	 76	 24
Si       11.6532597806    3.8180944206    4.3187856924	 0	 25	 37	 70	 0
Si       12.4661996727    1.5484900816    6.3881221953	 0	 26	 37	 79	 80
Si       16.0980066266    0.5677961808    9.3420283816	 0	 27	 60	 59	 94
O        12.2815068322    7.6404236399    5.7728262901	 0	 39	 40	 0	 0
O        12.8435490508    7.0194599772    3.2495548874	 0	 28	 39	 0	 0
O        11.3675418876    5.3779501048    4.7587521340	 0	 39	 0	 0	 0
O        12.2929677763    2.9854638631    5.5821526675	 0	 31	 32	 0	 0
O        14.2889200220    9.1828104504    6.6942105049	 0	 29	 40	 0	 0
Si       11.6961785079    6.9315912588    4.4152321589	 0	 34	 35	 36	 69
Si       12.6630217319    8.9924463076    6.6152070138	 0	 34	 38	 77	 78
O        16.6171030445    9.0959700522    8.0366553093	 0	 42	 29	 0	 0
Si       16.3995124601    9.5964558763    9.5793701541	 0	 41	 83	 46	 47
O        16.3737681076    7.0798303835   13.2030094232	 0	 53	 54	 0	 0
O        14.6375278785    5.0573889088   12.9282315284	 0	 57	 53	 0	 0
O        17.9100083603    4.9448457518   12.7040354958	 0	 58	 54	 0	 0
O        17.4745613779    8.8401606965   10.5352040066	 0	 42	 55	 0	 0
O        14.8710904841    9.2280123827   10.0236444444	 0	 42	 56	 0	 0
O        18.8680859199    7.3953823877   12.2908319091	 0	 54	 55	 0	 0
O        14.0790208605    7.4458442733   11.8891475486	 0	 53	 56	 0	 0
O        16.2272052562    2.9152717111   13.1471711968	 0	 57	 58	 0	 0
O        18.6917844115    2.4433192547   12.2112288436	 0	 58	 61	 0	 0
O        13.9804028342    2.8042074524   11.6793533971	 0	 57	 62	 0	 0
Si       14.7858255695    6.6624676279   13.1386906150	 0	 49	 89	 43	 44
Si       17.9058149745    6.4861679017   13.2441433628	 0	 90	 43	 45	 48
Si       18.7700122127    8.8498016492   11.5453018964	 0	 84	 46	 88	 48
Si       13.8500828988    8.9578840785   11.2851373380	 0	 49	 82	 85	 47
Si       14.6741925959    3.4305005263   13.0170917111	 0	 44	 91	 52	 50
Si       17.8002011306    3.3859116607   13.1938527080	 0	 50	 51	 92	 45
O        17.1794035927    1.2933384371   10.3342798968	 0	 33	 61	 0	 0
O        14.5813442903    1.0364781543    9.7450888446	 0	 33	 62	 0	 0
Si       18.4800585781    1.0875113761   11.3113848419	 0	 81	 59	 93	 51
Si       13.5887250917    1.3485108296   11.0087757392	 0	 52	 60	 86	 87
O        18.3954605579    3.6337854300    1.2210524233	-1	 19	 95	 0	 0
O        18.5304605579    0.9667854300    2.3010524233	-1	 19	 96	 0	 0
O        20.4784605579    2.6937854300    2.7920524233	-1	 97	 19	 0	 0
O        13.9264605579    3.2987854300    0.8300524233	-1	 98	 20	 0	 0
O        13.5854605579    1.3497854300    2.5880524233	-1	 99	 20	 0	 0
O        16.2434605579   -0.0282145700    5.4620524233	-1	 100	 21	 0	 0
O        10.4474605579    7.7657854300    3.8470524233	-1	 101	 39	 0	 0
O        10.2634605579    3.1897854300    3.8550524233	-1	 102	 31	 0	 0
O        14.1314605579    7.4717854300    1.0290524233	-1	 114	 28	 0	 0
O        14.0234605579    9.3837854300    2.8670524233	-1	 115	 28	 0	 0
O        16.4204605579   10.4227854300    5.7740524233	-1	 116	 29	 0	 0
O        18.5004605579    6.9167854300    1.2750524233	-1	 117	 30	 0	 0
O        18.6674605579    9.2527854300    2.5120524233	-1	 118	 30	 0	 0
O        20.4184605579    7.2657854300    2.8720524233	-1	 30	 119	 0	 0
O        12.0824605579   10.2557854300    5.8250524233	-1	 109	 40	 0	 0
O        12.0644605579    8.8597854300    8.0830524233	-1	 110	 40	 0	 0
O        11.7494605579    0.4027854300    5.5170524233	-1	 120	 32	 0	 0
O        11.7254605579    1.7157854300    7.8170524233	-1	 121	 32	 0	 0
O        19.7974605579    0.8417854300   10.4420524233	-1	 489	 61	 0	 0
O        12.3704605579    9.0667854300   10.7250524233	-1	 110	 56	 0	 0
O        16.6154605579   11.1767854300    9.6850524233	-1	 42	 237	 0	 0
O        18.5644605579    9.9977854300   12.6520524233	-1	 235	 55	 0	 0
O        14.1244605579   10.0447854300   12.4440524233	-1	 234	 56	 0	 0
O        12.1044605579    1.4227854300   10.4520524233	-1	 121	 62	 0	 0
O        13.7524605579    0.1957854300   12.1260524233	-1	 738	 62	 0	 0
O        20.0994605579    9.0927854300   10.6970524233	-1	 55	 544	 0	 0
O        14.0724605579    7.1047854300   14.4970524233	-1	 652	 53	 0	 0
O        18.4414605579    6.5497854300   14.7430524233	-1	 653	 54	 0	 0
O        13.8674605579    2.9307854300   14.2980524233	-1	 57	 660	 0	 0
O        18.3364605579    3.2657854300   14.6890524233	-1	 58	 661	 0	 0
O        18.2014605579   -0.1532145700   12.2910524233	-1	 739	 61	 0	 0
O        16.2164605579   -1.0172145700    9.5320524233	-1	 33	 741	 0	 0
Si       17.8534605579    3.7687854300   -0.2909475767	-23	 1193	 1194	 132	 63
Si       18.8014605579   -0.6102145700    2.5610524233	-23	 1201	 1203	 133	 64
Si       21.7944605579    3.4667854300    2.2660524233	-23	 65	 1196	 1197	 1198
Si       14.7234605579    3.8227854300   -0.4679475767	-23	 66	 1195	 132	 1192
Si       13.7784605579   -0.2472145700    2.4540524233	-23	 67	 134	 1199	 1200
Si       16.4584605579   -1.2042145700    4.3780524233	-23	 1202	 68	 133	 134
Si        8.8814605579    7.9677854300    4.1560524233	-23	 105	 69	 103	 104
Si        8.6664605579    3.0467854300    4.0550524233	-23	 106	 107	 108	 70
O         8.3594605579    7.1227854300    5.4720524233	-1	 101	 111	 0	 0
O         8.0294605579    7.4737854300    2.8690524233	-1	 101	 112	 0	 0
O         8.6274605579    9.5397854300    4.4340524233	-1	 113	 101	 0	 0
O         8.1864605579    3.8757854300    5.3660524233	-1	 122	 102	 0	 0
O         7.9044605579    3.6537854300    2.7480524233	-1	 123	 102	 0	 0
O         8.2764605579    1.4777854300    4.2340524233	-1	 124	 102	 0	 0
Si       11.9304605579   11.5317854300    4.8330524233	-23	 162	 220	 77	 156
Si       11.6174605579    9.6647854300    9.4190524233	-22	 82	 170	 173	 78
Si        7.8234605579    7.0047854300    6.9950524233	-2	 211	 155	 196	 103
Si        6.5124605579    7.1937854300    2.3530524233	-2	 153	 219	 212	 104
Si        8.9804605579   11.1167854300    4.2560524233	-2	 105	 220	 206	 207
Si       14.8314605579    7.0077854300   -0.3549475767	-23	 1192	 276	 71	 288
Si       14.2694605579   10.9857854300    2.8350524233	-23	 161	 156	 157	 72
Si       16.7514605579   11.5307854300    4.6400524233	-23	 73	 163	 161	 160
Si       17.9514605579    6.8327854300   -0.2459475767	-23	 1193	 74	 276	 285
Si       19.0294605579   10.8127854300    2.7920524233	-23	 75	 387	 159	 160
Si       21.7594605579    6.5507854300    2.2950524233	-23	 76	 469	 1198	 479
Si       11.4604605579   -0.7782145700    4.4430524233	-23	 701	 711	 79	 1199
Si       11.2784605579    0.9097854300    9.1540524233	-22	 718	 86	 185	 80
Si        7.6924605579    3.9347854300    6.9060524233	-2	 106	 147	 143	 155
Si        6.4064605579    4.0617854300    2.2620524233	-2	 153	 107	 148	 152
Si        8.5404605579   -0.1032145700    3.9450524233	-2	 108	 701	 695	 696
O         3.8114605579    3.2597854300    8.2620524233	-1	 233	 225	 0	 0
O         9.1944605579   15.3967854300    8.9310524233	-1	 226	 253	 0	 0
O         4.1654605579   15.5937854300    8.8910524233	-1	 257	 230	 0	 0
O         6.0064605579   15.7317854300    0.8450524233	-1	 228	 255	 0	 0
O         2.5704605579   15.8707854300    1.0020524233	-1	 229	 256	 0	 0
O         2.7384605579    4.1907854300    3.3390524233	-1	 231	 232	 0	 0
O         1.3344605579    5.8497854300    1.8380524233	-1	 231	 263	 0	 0
O        16.2834605579    3.3557854300   -0.3899475767	-1	 98	 95	 0	 0
O        17.9874605579   -1.1622145700    3.8500524233	-1	 100	 96	 0	 0
O        15.2684605579   -0.6972145700    2.9310524233	-1	 99	 100	 0	 0
O         7.1374605579    1.7087854300    9.6820524233	-1	 221	 222	 0	 0
O         6.2684605579    1.4877854300   12.1570524233	-1	 637	 222	 0	 0
O         3.9944605579    1.8587854300   -0.0759475767	-1	 223	 224	 0	 0
O         4.5444605579    1.5037854300   10.1520524233	-1	 225	 222	 0	 0
O         7.7654605579   17.0017854300   10.4730524233	-1	 226	 227	 0	 0
O         6.5914605579   17.4267854300   12.7660524233	-1	 227	 639	 0	 0
O         4.3444605579   17.8137854300    0.5790524233	-1	 228	 229	 0	 0
O         5.1354605579   17.4497854300   10.5440524233	-1	 227	 230	 0	 0
O         8.5574605579    2.9257854300    7.8300524233	-1	 122	 221	 0	 0
O         3.8004605579    0.6617854300    7.7330524233	-1	 225	 730	 0	 0
O        20.3204605579   17.1997854300   10.9350524233	-1	 242	 495	 0	 0
O         3.8414605579    3.6217854300    5.6400524233	-1	 233	 232	 0	 0
O         6.1234605579    3.5007854300    6.9870524233	-1	 233	 122	 0	 0
O         5.3594605579    3.7007854300    3.4610524233	-1	 123	 232	 0	 0
O         3.5964605579    1.7347854300    3.7870524233	-1	 729	 232	 0	 0
O         1.6974605579    0.9717854300    0.8580524233	-1	 224	 728	 0	 0
O         2.1944605579    3.5967854300    0.8020524233	-1	 231	 224	 0	 0
O         6.0304605579    3.2767854300    0.8930524233	-1	 123	 223	 0	 0
O         6.3374605579    5.6447854300    1.9240524233	-1	 123	 112	 0	 0
O         4.4814605579    5.5847854300    7.3060524233	-1	 233	 265	 0	 0
O         7.8874605579    5.4507854300    7.4600524233	-1	 122	 111	 0	 0
O        13.1754605579   11.6807854300    3.8090524233	-1	 115	 109	 0	 0
O        14.0844605579   11.5787854300    1.3370524233	-1	 115	 317	 0	 0
O        16.3144605579   11.0787854300   13.4800524233	-1	 234	 235	 0	 0
O        18.5694605579   11.6737854300    1.4920524233	-1	 318	 118	 0	 0
O        18.2774605579   11.3527854300    4.1240524233	-1	 116	 118	 0	 0
O        15.7654605579   11.3457854300    3.3590524233	-1	 115	 116	 0	 0
O        11.8294605579   12.8927854300    5.7200524233	-1	 109	 239	 0	 0
O        16.5934605579   13.0097854300    5.2910524233	-1	 116	 238	 0	 0
O        17.7504605579   13.4697854300   10.2600524233	-1	 236	 237	 0	 0
O        16.5814605579   13.1717854300    7.9370524233	-1	 237	 238	 0	 0
O        14.2964605579   13.2557854300    6.6050524233	-1	 238	 239	 0	 0
O        12.2314605579   13.6797854300    8.2300524233	-1	 239	 240	 0	 0
O        12.5424605579   13.2717854300   10.8320524233	-1	 241	 240	 0	 0
O        15.0894605579   13.2987854300   10.1330524233	-1	 241	 237	 0	 0
O        11.9814605579   11.2367854300    9.2110524233	-1	 110	 240	 0	 0
O        18.3254605579   12.6517854300   12.7300524233	-1	 235	 236	 0	 0
O        14.3794605579   12.6927854300   12.6560524233	-1	 241	 234	 0	 0
O        10.0304605579    9.4607854300    9.6900524233	-1	 110	 248	 0	 0
O        10.1404605579   13.0667854300    9.7720524233	-1	 253	 240	 0	 0
O        19.2354605579   14.9567854300   11.8620524233	-1	 242	 236	 0	 0
O        14.1594605579   15.1407854300   11.8180524233	-1	 241	 247	 0	 0
O        16.0304605579   15.2857854300    6.4410524233	-1	 244	 238	 0	 0
O        12.6754605579   15.3447854300    6.2390524233	-1	 245	 239	 0	 0
O        17.8574605579   16.5507854300   10.2600524233	-1	 242	 243	 0	 0
O        16.7044605579   17.3217854300    8.0190524233	-1	 243	 244	 0	 0
O        14.3784605579   17.3477854300    6.7480524233	-1	 244	 245	 0	 0
O        12.2534605579   16.9547854300    8.2900524233	-1	 245	 246	 0	 0
O        12.6774605579   17.1437854300   10.9020524233	-1	 246	 247	 0	 0
O        15.2164605579   16.9497854300   10.1750524233	-1	 243	 247	 0	 0
O         9.7124605579    1.2017854300    9.4720524233	-1	 121	 221	 0	 0
O        10.2744605579   17.6107854300    9.9320524233	-1	 226	 246	 0	 0
O         7.4284605579    9.1237854300    9.9210524233	-1	 249	 248	 0	 0
O         6.5204605579    9.2627854300   12.3890524233	-1	 249	 664	 0	 0
O         4.2614605579    9.6987854300    0.1950524233	-1	 250	 251	 0	 0
O         4.8374605579    9.4647854300   10.3690524233	-1	 249	 252	 0	 0
O         7.6864605579   13.7867854300   10.3990524233	-1	 253	 254	 0	 0
O         6.4314605579   13.3527854300   12.6500524233	-1	 666	 254	 0	 0
O         4.2034605579   13.7967854300    0.5220524233	-1	 255	 256	 0	 0
O         5.0304605579   13.5827854300   10.4130524233	-1	 257	 254	 0	 0
O         6.5474605579   11.4407854300   10.8150524233	-1	 249	 254	 0	 0
O         8.7404605579    7.8957854300    7.9920524233	-1	 111	 248	 0	 0
O         8.4454605579   10.5287854300    7.8700524233	-1	 261	 248	 0	 0
O         8.2644605579   13.1907854300    7.8670524233	-1	 253	 261	 0	 0
O         3.9904605579    7.9047854300    8.3700524233	-1	 265	 252	 0	 0
O         4.1434605579   10.5357854300    8.0270524233	-1	 260	 252	 0	 0
O         4.2544605579   13.1947854300    7.8740524233	-1	 257	 260	 0	 0
O        20.2024605579   12.7047854300   10.8260524233	-1	 236	 550	 0	 0
O         3.0764605579   12.0457854300    3.2300524233	-1	 258	 259	 0	 0
O         3.9444605579   11.7437854300    5.6980524233	-1	 259	 260	 0	 0
O         6.2634605579   11.7037854300    6.9720524233	-1	 260	 261	 0	 0
O         8.5284605579   11.8987854300    5.6070524233	-1	 113	 261	 0	 0
O         8.1974605579   11.7357854300    2.9770524233	-1	 113	 262	 0	 0
O         5.6584605579   11.6527854300    3.6860524233	-1	 259	 262	 0	 0
O         2.8194605579    7.3447854300    3.4420524233	-1	 263	 264	 0	 0
O         3.9874605579    7.6777854300    5.7520524233	-1	 265	 264	 0	 0
O         6.2864605579    7.5517854300    7.0730524233	-1	 265	 111	 0	 0
O         5.4804605579    7.5627854300    3.5640524233	-1	 112	 264	 0	 0
O         3.9174605579    9.6717854300    4.0000524233	-1	 259	 264	 0	 0
O         1.7414605579   13.4077854300    1.4040524233	-1	 258	 256	 0	 0
O         2.0354605579   10.7967854300    1.0860524233	-1	 258	 251	 0	 0
O         2.2564605579    8.1397854300    0.9630524233	-1	 251	 263	 0	 0
O         6.4884605579   13.3437854300    1.7940524233	-1	 262	 255	 0	 0
O         6.4164605579   10.7357854300    1.3020524233	-1	 250	 262	 0	 0
O         6.2044605579    8.0917854300    1.0350524233	-1	 250	 112	 0	 0
O        10.5624605579   11.3467854300    3.9790524233	-1	 113	 109	 0	 0
Si        8.3614605579    1.5267854300    8.6400524233	-2	 185	 143	 686	 135
Si        6.0244605579    1.0137854300   10.6270524233	-2	 138	 685	 135	 136
Si        5.5974605579    1.9087854300    0.1380524233	-2	 137	 267	 700	 152
Si        2.4154605579    2.1767854300    0.0480524233	-2	 137	 1222	 150	 151
Si        3.5674605579    1.7787854300    8.8820524233	-2	 138	 1205	 125	 144
Si        8.9204605579   16.9397854300    9.3340524233	-2	 186	 139	 126	 1435
Si        6.5774605579   17.8257854300   11.1980524233	-2	 1210	 139	 140	 142
Si        5.8974605579   17.3307854300    0.6570524233	-2	 1434	 141	 269	 128
Si        2.7684605579   17.4057854300    0.5110524233	-2	 129	 1209	 141	 1223
Si        4.0824605579   17.1497854300    9.3330524233	-2	 1207	 142	 127	 1208
Si        1.6174605579    4.2847854300    2.1610524233	-2	 130	 131	 1214	 151
Si        3.8924605579    3.3087854300    4.0510524233	-2	 146	 130	 148	 149
Si        4.5764605579    3.9937854300    7.0370524233	-2	 146	 147	 154	 125
Si       14.7114605579   11.2627854300   13.3370524233	-23	 585	 172	 85	 158
Si       17.9194605579   11.2577854300   13.4540524233	-23	 586	 171	 84	 158
Si       18.8794605579   13.4387854300   11.4230524233	-2	 202	 171	 164	 175
Si       16.4984605579   12.7827854300    9.5030524233	-23	 169	 83	 164	 165
Si       15.8674605579   13.6897854300    6.5730524233	-2	 177	 163	 165	 166
Si       12.7604605579   13.7917854300    6.6990524233	-2	 162	 178	 166	 167
Si       11.7224605579   12.8147854300    9.5050524233	-2	 170	 174	 167	 168
Si       14.0484605579   13.5957854300   11.3530524233	-2	 169	 176	 172	 168
Si       18.9464605579   16.5037854300   11.4630524233	-2	 145	 179	 1423	 175
Si       16.6664605579   17.4547854300    9.6310524233	-2	 179	 180	 1215	 184
Si       15.9374605579   16.8837854300    6.6540524233	-2	 177	 180	 181	 1432
Si       12.8174605579   16.8747854300    6.7710524233	-2	 178	 1213	 181	 182
Si       11.8664605579   17.7667854300    9.6400524233	-2	 186	 182	 183	 1216
Si       14.1624605579   16.7037854300   11.3990524233	-2	 1217	 184	 183	 176
Si        8.6494605579    9.2657854300    8.8660524233	-2	 173	 187	 196	 197
Si        6.3384605579    9.8327854300   10.8840524233	-2	 195	 187	 188	 190
Si        5.8624605579    9.5317854300    0.3750524233	-2	 305	 218	 219	 189
Si        2.6554605579    9.5447854300    0.2640524233	-2	 1240	 189	 215	 216
Si        3.8404605579    9.3517854300    9.0890524233	-2	 1219	 190	 199	 200
Si        8.8214605579   13.8547854300    9.2420524233	-2	 126	 198	 191	 174
Si        6.4184605579   13.0377854300   11.0650524233	-2	 194	 195	 191	 192
Si        5.7924605579   14.1557854300    0.5760524233	-2	 193	 307	 217	 128
Si        2.6714605579   14.3457854300    0.4620524233	-2	 193	 129	 214	 1241
Si        3.9864605579   14.0267854300    9.2410524233	-2	 201	 194	 1221	 127
Si        1.8454605579   11.9837854300    2.1790524233	-2	 203	 1211	 214	 215
Si        4.1514605579   11.2717854300    4.1610524233	-2	 203	 204	 213	 208
Si        4.6614605579   11.8007854300    7.1540524233	-2	 201	 204	 205	 200
Si        7.8724605579   11.8277854300    7.0840524233	-2	 198	 197	 205	 206
Si        6.6774605579   11.8667854300    2.4330524233	-2	 217	 218	 207	 208
Si        1.6924605579    7.3657854300    2.2740524233	-2	 209	 131	 1212	 216
Si        4.0634605579    8.0657854300    4.1820524233	-2	 209	 210	 212	 213
Si        4.7084605579    7.1687854300    7.1150524233	-2	 210	 154	 199	 211
O         7.1964605579    2.0767854300   -3.7859475767	-1	 313	 312	 0	 0
O         6.3274605579    1.8557854300   -1.3109475767	-1	 313	 223	 0	 0
O         7.8244605579   17.3687854300   -2.9949475767	-1	 314	 315	 0	 0
O         6.6504605579   17.7937854300   -0.7019475767	-1	 315	 228	 0	 0
O         5.1944605579   17.8177854300   -2.9239475767	-1	 315	 316	 0	 0
O        19.8564605579    1.2087854300   -3.0259475767	-1	 327	 1080	 0	 0
O        20.3794605579   17.5677854300   -2.5329475767	-1	 331	 1084	 0	 0
O         9.2534605579   15.7637854300   -4.5369475767	-1	 337	 314	 0	 0
O         4.2244605579   15.9617854300   -4.5769475767	-1	 339	 316	 0	 0
O        16.3734605579   11.4467854300    0.0120524233	-1	 317	 318	 0	 0
O        16.4194605579    7.3787854300   -0.3029475767	-1	 114	 117	 0	 0
O        17.5534605579    9.1897854300   -3.0009475767	-1	 319	 320	 0	 0
O        12.4294605579    9.4337854300   -2.7429475767	-1	 321	 322	 0	 0
O        14.9604605579    9.5527854300   -3.4309475767	-1	 322	 320	 0	 0
O        17.8094605579   13.8367854300   -3.2079475767	-1	 323	 324	 0	 0
O        12.6004605579   13.6387854300   -2.6359475767	-1	 325	 326	 0	 0
O        15.1484605579   13.6657854300   -3.3349475767	-1	 324	 326	 0	 0
O        16.6734605579   11.5437854300   -3.7829475767	-1	 324	 320	 0	 0
O        12.0404605579   11.6047854300   -4.2569475767	-1	 321	 325	 0	 0
O        18.8664605579    7.7527854300   -1.2309475767	-1	 117	 319	 0	 0
O        18.6234605579   10.3657854300   -0.8159475767	-1	 318	 319	 0	 0
O        18.3844605579   13.0187854300   -0.7379475767	-1	 323	 318	 0	 0
O        14.1434605579    7.8127854300   -1.5849475767	-1	 322	 114	 0	 0
O        14.1834605579   10.4127854300   -1.0239475767	-1	 322	 317	 0	 0
O        14.4384605579   13.0597854300   -0.8119475767	-1	 317	 326	 0	 0
O        10.0894605579    9.8287854300   -3.7779475767	-1	 321	 335	 0	 0
O        10.1994605579   13.4337854300   -3.6959475767	-1	 337	 325	 0	 0
O        19.2944605579   15.3237854300   -1.6059475767	-1	 323	 331	 0	 0
O        14.2184605579   15.5087854300   -1.6499475767	-1	 334	 326	 0	 0
O        17.2754605579    1.6807854300   -3.2149475767	-1	 327	 328	 0	 0
O        12.1634605579    1.7897854300   -3.0159475767	-1	 329	 330	 0	 0
O        14.6734605579    1.4517854300   -3.7029475767	-1	 330	 328	 0	 0
O        17.9154605579   16.9187854300   -3.2079475767	-1	 331	 332	 0	 0
O        12.7364605579   17.5107854300   -2.5659475767	-1	 333	 334	 0	 0
O        15.2754605579   17.3167854300   -3.2929475767	-1	 332	 334	 0	 0
O        13.8114605579    0.5637854300   -1.3419475767	-1	 330	 815	 0	 0
O         9.7714605579    1.5697854300   -3.9959475767	-1	 329	 312	 0	 0
O        10.3334605579   17.9787854300   -3.5359475767	-1	 314	 333	 0	 0
O         7.4874605579    9.4907854300   -3.5469475767	-1	 335	 336	 0	 0
O         6.5794605579    9.6297854300   -1.0789475767	-1	 250	 336	 0	 0
O         7.7454605579   14.1547854300   -3.0689475767	-1	 337	 338	 0	 0
O         6.4904605579   13.7197854300   -0.8179475767	-1	 338	 255	 0	 0
O         5.0894605579   13.9497854300   -3.0549475767	-1	 338	 339	 0	 0
O         6.6064605579   11.8077854300   -2.6529475767	-1	 338	 336	 0	 0
O        20.1584605579    9.4607854300   -2.7709475767	-1	 1110	 319	 0	 0
O        20.2614605579   13.0717854300   -2.6419475767	-1	 1114	 323	 0	 0
Si        8.4204605579    1.8947854300   -4.8279475767	-2	 266	 1226	 302	 1312
Si        6.0834605579    1.3817854300   -2.8409475767	-2	 794	 267	 1430	 266
Si        8.9794605579   17.3067854300   -4.1339475767	-2	 273	 1227	 268	 303
Si        6.6364605579   18.1927854300   -2.2689475767	-2	 1225	 268	 269	 270
Si        4.1414605579   17.5167854300   -4.1349475767	-2	 274	 1228	 270	 1224
Si       14.7704605579   11.6307854300   -0.1309475767	-2	 289	 290	 275	 157
Si       17.9784605579   11.6257854300   -0.0139475767	-2	 275	 286	 159	 287
Si       18.7804605579    9.2107854300   -1.9439475767	-2	 286	 310	 285	 277
Si       16.4544605579    9.9477854300   -3.9219475767	-2	 283	 1229	 277	 279
Si       11.6764605579   10.0317854300   -4.0489475767	-2	 1230	 291	 284	 278
Si       13.9434605579    9.3037854300   -2.1829475767	-2	 289	 278	 279	 288
Si       18.9374605579   13.8057854300   -2.0449475767	-2	 311	 293	 287	 280
Si       16.5574605579   13.1507854300   -3.9649475767	-2	 282	 283	 1231	 280
Si       11.7814605579   13.1817854300   -3.9629475767	-2	 284	 281	 292	 1232
Si       14.1074605579   13.9637854300   -2.1149475767	-2	 281	 290	 294	 282
Si       18.4984605579    1.4677854300   -2.1689475767	-2	 1194	 806	 295	 271
Si       16.1534605579    0.9587854300   -4.1439475767	-2	 297	 804	 295	 1233
Si       11.3374605579    1.2777854300   -4.3139475767	-2	 1234	 805	 302	 296
Si       13.6794605579    1.7427854300   -2.4439475767	-2	 297	 1195	 301	 296
Si       19.0054605579   16.8707854300   -2.0039475767	-2	 298	 1436	 293	 272
Si       16.7254605579   17.8217854300   -3.8369475767	-2	 298	 1235	 300	 1237
Si       11.9254605579   18.1337854300   -3.8279475767	-2	 299	 1236	 1238	 303
Si       14.2214605579   17.0717854300   -2.0689475767	-2	 299	 300	 294	 1239
Si        8.7084605579    9.6327854300   -4.6019475767	-2	 1243	 291	 1244	 304
Si        6.3974605579   10.1997854300   -2.5839475767	-2	 305	 1429	 309	 304
Si        8.8804605579   14.2217854300   -4.2259475767	-2	 273	 306	 292	 1245
Si        6.4764605579   13.4057854300   -2.4029475767	-2	 306	 307	 308	 309
Si        4.0454605579   14.3937854300   -4.2269475767	-2	 1242	 308	 1246	 274
O        27.2814605579    0.9917854300    9.7500524233	-1	 485	 486	 0	 0
O        26.4124605579    0.7707854300   12.2250524233	-1	 977	 486	 0	 0
O        24.1384605579    1.1417854300   -0.0069475767	-1	 487	 488	 0	 0
O        21.8474605579    1.2277854300   12.1050524233	-1	 489	 978	 0	 0
O        22.1744605579    1.0117854300    9.4650524233	-1	 489	 490	 0	 0
O        24.6884605579    0.7867854300   10.2200524233	-1	 490	 486	 0	 0
O        27.9094605579   16.2847854300   10.5410524233	-1	 491	 492	 0	 0
O        26.7354605579   16.7097854300   12.8350524233	-1	 979	 492	 0	 0
O        24.4884605579   17.0967854300    0.6480524233	-1	 493	 494	 0	 0
O        22.3254605579   16.4537854300   12.5200524233	-1	 980	 495	 0	 0
O        22.7264605579   16.7897854300    9.9240524233	-1	 495	 496	 0	 0
O        25.2804605579   16.7337854300   10.6120524233	-1	 492	 496	 0	 0
O        28.7014605579    2.2087854300    7.8990524233	-1	 499	 485	 0	 0
O        23.9554605579    2.5427854300    8.3300524233	-1	 490	 498	 0	 0
O        23.9444605579   -0.0552145700    7.8010524233	-1	 490	 880	 0	 0
O        29.3394605579   14.6797854300    8.9990524233	-1	 546	 491	 0	 0
O        24.3104605579   14.8767854300    8.9600524233	-1	 551	 496	 0	 0
O        26.1504605579   15.0147854300    0.9130524233	-1	 548	 493	 0	 0
O        22.7144605579   15.1547854300    1.0700524233	-1	 549	 494	 0	 0
O        23.9864605579    2.9047854300    5.7080524233	-1	 497	 498	 0	 0
O        26.2674605579    2.7837854300    7.0560524233	-1	 498	 499	 0	 0
O        28.3304605579    3.1587854300    5.4340524233	-1	 499	 500	 0	 0
O        28.0484605579    2.9367854300    2.8170524233	-1	 500	 501	 0	 0
O        25.5034605579    2.9837854300    3.5290524233	-1	 497	 501	 0	 0
O        23.7414605579    1.0187854300    3.8550524233	-1	 497	 879	 0	 0
O        28.4204605579    0.7607854300    4.3030524233	-1	 882	 500	 0	 0
O        21.8414605579    0.2547854300    0.9270524233	-1	 878	 488	 0	 0
O        26.1744605579    2.5597854300    0.9620524233	-1	 501	 487	 0	 0
O        30.4074605579    2.4727854300    3.9240524233	-1	 524	 500	 0	 0
O        26.4814605579    4.9277854300    1.9920524233	-1	 562	 501	 0	 0
O        24.6254605579    4.8677854300    7.3740524233	-1	 498	 559	 0	 0
O        28.0314605579    4.7337854300    7.5290524233	-1	 499	 560	 0	 0
O        33.3194605579   10.9637854300    3.8770524233	-1	 502	 503	 0	 0
O        34.2284605579   10.8617854300    1.4060524233	-1	 1086	 503	 0	 0
O        36.4584605579   10.3617854300   13.5480524233	-1	 505	 504	 0	 0
O        35.9094605579   10.6287854300    3.4270524233	-1	 506	 503	 0	 0
O        33.0524605579    6.3047854300    3.3560524233	-1	 507	 508	 0	 0
O        34.2754605579    6.7547854300    1.0980524233	-1	 508	 1088	 0	 0
O        36.5044605579    6.2937854300   13.2330524233	-1	 509	 510	 0	 0
O        35.7194605579    6.5707854300    3.3130524233	-1	 508	 511	 0	 0
O        34.1674605579    8.6667854300    2.9360524233	-1	 508	 503	 0	 0
O        31.9734605579   12.1757854300    5.7880524233	-1	 521	 502	 0	 0
O        32.2264605579    9.5387854300    5.8930524233	-1	 515	 502	 0	 0
O        32.4784605579    6.8877854300    5.8820524233	-1	 507	 515	 0	 0
O        36.7374605579   12.2927854300    5.3590524233	-1	 506	 520	 0	 0
O        36.5644605579    9.7057854300    5.8430524233	-1	 506	 514	 0	 0
O        36.5104605579    7.0327854300    5.8470524233	-1	 514	 511	 0	 0
O        20.6164605579   11.0057854300    3.0680524233	-1	 118	 552	 0	 0
O        31.6084605579    4.6487854300    4.8520524233	-1	 507	 524	 0	 0
O        36.4964605579    4.6027854300    4.9780524233	-1	 563	 511	 0	 0
O        34.7084605579    4.3467854300   12.9250524233	-1	 509	 526	 0	 0
O        38.1414605579    4.2237854300   12.7480524233	-1	 510	 527	 0	 0
O        37.6384605579    8.1057854300   10.5360524233	-1	 513	 512	 0	 0
O        36.7474605579    8.3557854300    8.0890524233	-1	 513	 514	 0	 0
O        34.4494605579    8.4347854300    6.7700524233	-1	 514	 515	 0	 0
O        32.2084605579    8.1427854300    8.1510524233	-1	 515	 516	 0	 0
O        32.5144605579    8.3497854300   10.7930524233	-1	 516	 517	 0	 0
O        35.0464605579    8.4687854300   10.1050524233	-1	 513	 517	 0	 0
O        37.8944605579   12.7527854300   10.3290524233	-1	 518	 519	 0	 0
O        36.7264605579   12.4547854300    8.0050524233	-1	 519	 520	 0	 0
O        34.4414605579   12.5387854300    6.6730524233	-1	 521	 520	 0	 0
O        32.3754605579   12.9627854300    8.2980524233	-1	 521	 522	 0	 0
O        32.6864605579   12.5547854300   10.9010524233	-1	 522	 523	 0	 0
O        35.2344605579   12.5817854300   10.2010524233	-1	 523	 519	 0	 0
O        36.7594605579   10.4597854300    9.7540524233	-1	 513	 519	 0	 0
O        32.1254605579   10.5197854300    9.2790524233	-1	 522	 516	 0	 0
O        38.9524605579    6.6677854300   12.3050524233	-1	 510	 512	 0	 0
O        38.7084605579    9.2807854300   12.7200524233	-1	 505	 512	 0	 0
O        38.4694605579   11.9347854300   12.7990524233	-1	 505	 518	 0	 0
O        34.2284605579    6.7277854300   11.9520524233	-1	 509	 517	 0	 0
O        34.2684605579    9.3277854300   12.5120524233	-1	 517	 504	 0	 0
O        34.5234605579   11.9757854300   12.7250524233	-1	 523	 504	 0	 0
O        30.1744605579    8.7437854300    9.7580524233	-1	 540	 516	 0	 0
O        30.2844605579   12.3497854300    9.8400524233	-1	 546	 522	 0	 0
O        39.3794605579   14.2397854300   11.9300524233	-1	 534	 518	 0	 0
O        34.3034605579   14.4237854300   11.8860524233	-1	 523	 539	 0	 0
O        36.1744605579   14.5697854300    6.5090524233	-1	 536	 520	 0	 0
O        32.8194605579   14.6277854300    6.3080524233	-1	 521	 537	 0	 0
O        32.8494605579    3.0517854300    3.1460524233	-1	 524	 525	 0	 0
O        34.0704605579    2.5817854300    0.8990524233	-1	 1098	 525	 0	 0
O        36.3694605579    2.2707854300   13.1460524233	-1	 526	 527	 0	 0
O        35.4884605579    2.5817854300    3.1640524233	-1	 563	 525	 0	 0
O        33.7294605579    0.6327854300    2.6570524233	-1	 890	 525	 0	 0
O        31.8944605579   -0.3142145700    5.5850524233	-1	 889	 531	 0	 0
O        32.4264605579    2.2907854300    5.6760524233	-1	 531	 524	 0	 0
O        36.1884605579    2.0857854300    5.9550524233	-1	 530	 563	 0	 0
O        37.3604605579    0.5967854300   10.3220524233	-1	 529	 528	 0	 0
O        36.5064605579    0.3007854300    7.8560524233	-1	 529	 530	 0	 0
O        34.1574605579    0.5027854300    6.6590524233	-1	 530	 531	 0	 0
O        31.8694605579    0.9987854300    7.8860524233	-1	 531	 532	 0	 0
O        32.2484605579    0.7057854300   10.5200524233	-1	 532	 533	 0	 0
O        34.7584605579    0.3667854300    9.8340524233	-1	 529	 533	 0	 0
O        38.0014605579   15.8337854300   10.3280524233	-1	 534	 535	 0	 0
O        36.8484605579   16.6047854300    8.0870524233	-1	 535	 536	 0	 0
O        34.5224605579   16.6307854300    6.8160524233	-1	 537	 536	 0	 0
O        32.3974605579   16.2377854300    8.3590524233	-1	 537	 538	 0	 0
O        32.8214605579   16.4267854300   10.9710524233	-1	 538	 539	 0	 0
O        35.3604605579   16.2327854300   10.2430524233	-1	 539	 535	 0	 0
O        38.7884605579    1.7477854300   12.2220524233	-1	 527	 528	 0	 0
O        34.1234605579    2.0977854300   11.7420524233	-1	 533	 526	 0	 0
O        33.8964605579   -0.5212145700   12.1950524233	-1	 891	 533	 0	 0
O        29.8564605579    0.4847854300    9.5410524233	-1	 532	 485	 0	 0
O        30.4194605579   16.8937854300   10.0010524233	-1	 538	 491	 0	 0
O        27.5724605579    8.4067854300    9.9900524233	-1	 540	 541	 0	 0
O        26.6644605579    8.5457854300   12.4580524233	-1	 1003	 541	 0	 0
O        24.4054605579    8.9817854300    0.2640524233	-1	 542	 543	 0	 0
O        22.1184605579    8.4307854300   12.3030524233	-1	 1004	 544	 0	 0
O        22.4534605579    8.7477854300    9.6820524233	-1	 545	 544	 0	 0
O        24.9814605579    8.7477854300   10.4380524233	-1	 545	 541	 0	 0
O        27.8304605579   13.0697854300   10.4670524233	-1	 546	 547	 0	 0
O        26.5754605579   12.6357854300   12.7190524233	-1	 547	 1005	 0	 0
O        24.3474605579   13.0797854300    0.5910524233	-1	 548	 549	 0	 0
O        22.2374605579   13.2137854300   12.4620524233	-1	 1006	 550	 0	 0
O        22.6194605579   13.0257854300    9.8400524233	-1	 550	 551	 0	 0
O        25.1744605579   12.8657854300   10.4810524233	-1	 547	 551	 0	 0
O        26.6914605579   10.7237854300   10.8830524233	-1	 547	 541	 0	 0
O        22.0504605579   10.8557854300   11.2720524233	-1	 550	 544	 0	 0
O        28.8844605579    7.1787854300    8.0600524233	-1	 540	 560	 0	 0
O        28.5904605579    9.8127854300    7.9390524233	-1	 555	 540	 0	 0
O        28.4084605579   12.4737854300    7.9360524233	-1	 546	 555	 0	 0
O        24.1344605579    7.1877854300    8.4390524233	-1	 545	 559	 0	 0
O        24.2884605579    9.8187854300    8.0950524233	-1	 545	 554	 0	 0
O        24.3984605579   12.4777854300    7.9420524233	-1	 554	 551	 0	 0
O        23.2204605579   11.3287854300    3.2990524233	-1	 553	 552	 0	 0
O        24.0884605579   11.0267854300    5.7660524233	-1	 553	 554	 0	 0
O        26.4074605579   10.9867854300    7.0410524233	-1	 554	 555	 0	 0
O        28.6724605579   11.1817854300    5.6760524233	-1	 555	 556	 0	 0
O        28.3414605579   11.0187854300    3.0460524233	-1	 556	 557	 0	 0
O        25.8024605579   10.9357854300    3.7550524233	-1	 553	 557	 0	 0
O        22.9634605579    6.6277854300    3.5110524233	-1	 558	 119	 0	 0
O        24.1324605579    6.9607854300    5.8210524233	-1	 558	 559	 0	 0
O        26.4304605579    6.8347854300    7.1420524233	-1	 559	 560	 0	 0
O        28.5044605579    6.4057854300    5.5410524233	-1	 561	 560	 0	 0
O        28.1734605579    6.7567854300    2.9380524233	-1	 561	 562	 0	 0
O        25.6244605579    6.8457854300    3.6320524233	-1	 562	 558	 0	 0
O        24.0614605579    8.9547854300    4.0680524233	-1	 553	 558	 0	 0
O        28.7714605579    8.8227854300    4.5020524233	-1	 561	 556	 0	 0
O        21.8854605579   12.6907854300    1.4730524233	-1	 549	 552	 0	 0
O        22.1794605579   10.0797854300    1.1540524233	-1	 543	 552	 0	 0
O        22.4004605579    7.4227854300    1.0320524233	-1	 119	 543	 0	 0
O        26.6324605579   12.6267854300    1.8630524233	-1	 548	 557	 0	 0
O        26.5604605579   10.0187854300    1.3700524233	-1	 557	 542	 0	 0
O        26.3484605579    7.3747854300    1.1040524233	-1	 562	 542	 0	 0
O        30.7064605579   10.6297854300    4.0480524233	-1	 556	 502	 0	 0
O        30.5884605579    6.9537854300    3.9830524233	-1	 561	 507	 0	 0
Si       28.5054605579    0.8097854300    8.7080524233	-2	 441	 340	 829	 352
Si       26.1684605579    0.2967854300   10.6960524233	-2	 345	 827	 340	 341
Si       25.7414605579    1.1917854300    0.2060524233	-2	 842	 1021	 342	 367
Si       22.5594605579    1.4597854300    0.1170524233	-2	 1022	 1197	 342	 366
Si       21.3494605579    0.4747854300   10.7560524233	-23	 81	 828	 343	 344
Si       23.7114605579    1.0617854300    8.9500524233	-2	 345	 354	 353	 344
Si       29.0644605579   16.2227854300    9.4020524233	-2	 346	 355	 442	 1437
Si       26.7224605579   17.1087854300   11.2670524233	-2	 346	 347	 1247	 351
Si       26.0414605579   16.6137854300    0.7250524233	-2	 1433	 1026	 348	 357
Si       22.9134605579   16.6887854300    0.5800524233	-2	 1027	 348	 358	 1252
Si       21.9114605579   17.3347854300   11.2220524233	-2	 145	 349	 350	 1248
Si       24.2264605579   16.4327854300    9.4020524233	-2	 1249	 356	 350	 351
Si       24.0364605579    2.5917854300    4.1200524233	-2	 364	 363	 1196	 359
Si       24.7204605579    3.2767854300    7.1050524233	-2	 353	 370	 359	 360
Si       27.8364605579    3.2177854300    6.9740524233	-2	 361	 371	 352	 360
Si       28.8114605579    2.3297854300    4.1230524233	-2	 361	 362	 365	 368
Si       26.5504605579    3.3447854300    2.3300524233	-2	 369	 362	 363	 367
Si       32.0744605579   10.8147854300    4.9010524233	-2	 483	 372	 381	 382
Si       34.4134605579   10.2697854300    2.9040524233	-2	 372	 380	 373	 375
Si       34.8554605579   10.5457854300   13.4050524233	-2	 410	 411	 374	 923
Si       38.0644605579   10.5407854300   13.5220524233	-2	 1343	 374	 407	 408
Si       36.8964605579   10.8147854300    4.7080524233	-2	 385	 1254	 375	 384
Si       31.9284605579    6.1987854300    4.5170524233	-2	 388	 376	 383	 484
Si       34.3094605579    7.0687854300    2.6830524233	-2	 377	 379	 380	 376
Si       34.9164605579    5.9237854300   13.1810524233	-2	 409	 378	 390	 926
Si       38.0364605579    5.7487854300   13.2900524233	-2	 1345	 378	 406	 391
Si       36.7264605579    6.1087854300    4.5110524233	-2	 386	 379	 389	 1256
Si       38.8654605579    8.1257854300   11.5920524233	-2	 1263	 406	 407	 392
Si       36.5394605579    8.8637854300    9.6140524233	-2	 393	 404	 397	 392
Si       36.0574605579    8.3797854300    6.6180524233	-2	 385	 386	 394	 393
Si       32.8454605579    8.2557854300    6.6670524233	-2	 394	 395	 382	 383
Si       31.7624605579    8.9477854300    9.4880524233	-2	 395	 396	 405	 412
Si       34.0284605579    8.2187854300   11.3530524233	-2	 409	 410	 396	 397
Si       39.0234605579   12.7217854300   11.4910524233	-2	 1264	 398	 414	 408
Si       36.6424605579   12.0657854300    9.5710524233	-2	 403	 404	 398	 399
Si       36.0114605579   12.9727854300    6.6420524233	-2	 416	 384	 399	 400
Si       32.9044605579   13.0747854300    6.7670524233	-2	 417	 381	 401	 400
Si       31.8664605579   12.0977854300    9.5730524233	-2	 401	 402	 405	 413
Si       34.1924605579   12.8787854300   11.4210524233	-2	 402	 403	 415	 411
Si       31.8324605579    3.1027854300    4.3980524233	-2	 418	 388	 424	 368
Si       34.0934605579    2.2177854300    2.4890524233	-2	 418	 419	 421	 422
Si       34.8084605579    2.7377854300   13.0680524233	-2	 420	 390	 439	 944
Si       37.9384605579    2.6837854300   13.2450524233	-2	 1351	 420	 438	 391
Si       38.5834605579    0.3837854300   11.3680524233	-2	 426	 867	 1250	 438
Si       36.2384605579   -0.1262145700    9.3930524233	-2	 865	 426	 427	 431
Si       35.7654605579    0.6087854300    6.4300524233	-2	 425	 858	 427	 428
Si       32.5984605579    0.8677854300    6.4400524233	-2	 428	 429	 423	 424
Si       31.4224605579    0.1927854300    9.2220524233	-2	 441	 866	 429	 430
Si       33.7654605579    0.6577854300   11.0920524233	-2	 431	 430	 439	 440
Si       39.0914605579   15.7867854300   11.5320524233	-2	 1425	 1251	 414	 432
Si       36.8104605579   16.7377854300    9.6990524233	-2	 433	 1260	 437	 432
Si       36.0824605579   16.1677854300    6.7220524233	-2	 433	 434	 1443	 416
Si       32.9614605579   16.1577854300    6.8400524233	-2	 417	 434	 435	 1259
Si       32.0104605579   17.0497854300    9.7090524233	-2	 442	 435	 436	 1261
Si       34.3064605579   15.9867854300   11.4680524233	-2	 436	 437	 1262	 415
Si       28.7934605579    8.5487854300    8.9350524233	-2	 457	 458	 443	 412
Si       26.4824605579    9.1157854300   10.9530524233	-2	 443	 444	 455	 448
Si       26.0064605579    8.8147854300    0.4430524233	-2	 481	 482	 1067	 445
Si       22.7994605579    8.8277854300    0.3330524233	-2	 1068	 445	 478	 479
Si       21.6834605579    9.2967854300   11.0030524233	-23	 456	 446	 447	 88
Si       23.9854605579    8.6347854300    9.1580524233	-2	 460	 461	 447	 448
Si       28.9654605579   13.1377854300    9.3110524233	-2	 449	 459	 413	 355
Si       26.5624605579   12.3207854300   11.1340524233	-2	 449	 450	 454	 455
Si       25.9364605579   13.4387854300    0.6440524233	-2	 451	 357	 1072	 480
Si       22.8154605579   13.6287854300    0.5310524233	-2	 1073	 451	 477	 358
Si       21.7794605579   12.4507854300   11.1070524233	-2	 202	 452	 453	 456
Si       24.1304605579   13.3097854300    9.3090524233	-2	 454	 356	 453	 462
Si       21.9894605579   11.2667854300    2.2470524233	-2	 387	 477	 478	 463
Si       24.2954605579   10.5547854300    4.2300524233	-2	 475	 468	 463	 464
Si       24.8054605579   11.0837854300    7.2230524233	-2	 465	 461	 462	 464
Si       28.0164605579   11.1107854300    7.1520524233	-2	 465	 458	 459	 466
Si       29.1244605579   10.3997854300    4.3250524233	-2	 483	 466	 467	 476
Si       26.8214605579   11.1497854300    2.5010524233	-2	 481	 467	 468	 480
Si       24.2074605579    7.3497854300    4.2500524233	-2	 474	 475	 469	 470
Si       24.8524605579    6.4517854300    7.1840524233	-2	 370	 460	 470	 471
Si       27.9674605579    6.2877854300    7.0640524233	-2	 457	 371	 471	 472
Si       29.0144605579    7.2387854300    4.2440524233	-2	 473	 476	 484	 472
Si       26.6564605579    6.4767854300    2.4210524233	-2	 369	 474	 482	 473
Si       36.5964605579    2.9277854300    4.4510524233	-2	 425	 389	 421	 1258
O         3.9354605579    1.4917854300   13.3920524233	-1	 637	 638	 0	 0
O         4.2854605579   17.4467854300   14.0470524233	-1	 639	 640	 0	 0
O         5.9474605579   15.3637854300   14.3130524233	-1	 666	 639	 0	 0
O         2.5114605579   15.5037854300   14.4700524233	-1	 667	 640	 0	 0
O         2.6794605579    3.8227854300   16.8070524233	-1	 641	 642	 0	 0
O         3.7824605579    3.2537854300   19.1080524233	-1	 642	 643	 0	 0
O         6.0644605579    3.1327854300   20.4550524233	-1	 643	 644	 0	 0
O         8.1274605579    3.5077854300   18.8340524233	-1	 644	 645	 0	 0
O         7.8454605579    3.2867854300   16.2160524233	-1	 645	 646	 0	 0
O         5.3004605579    3.3327854300   16.9290524233	-1	 642	 646	 0	 0
O         3.5384605579    1.3677854300   17.2540524233	-1	 777	 642	 0	 0
O         8.2174605579    1.1107854300   17.7020524233	-1	 780	 645	 0	 0
O         1.6384605579    0.6047854300   14.3260524233	-1	 638	 776	 0	 0
O         2.1354605579    3.2287854300   14.2700524233	-1	 641	 638	 0	 0
O         5.9714605579    2.9097854300   14.3610524233	-1	 637	 646	 0	 0
O        10.2044605579    2.8217854300   17.3230524233	-1	 659	 645	 0	 0
O         1.2754605579    5.4827854300   15.3060524233	-1	 641	 674	 0	 0
O         6.2784605579    5.2777854300   15.3910524233	-1	 646	 679	 0	 0
O         4.4224605579    5.2167854300   20.7740524233	-1	 643	 676	 0	 0
O         7.8284605579    5.0837854300   20.9280524233	-1	 644	 677	 0	 0
O        13.1164605579   11.3137854300   17.2770524233	-1	 647	 648	 0	 0
O        14.0254605579   11.2107854300   14.8050524233	-1	 234	 648	 0	 0
O        18.5104605579   11.3067854300   14.9600524233	-1	 649	 235	 0	 0
O        18.2184605579   10.9857854300   17.5920524233	-1	 649	 650	 0	 0
O        15.7064605579   10.9787854300   16.8270524233	-1	 650	 648	 0	 0
O        12.8494605579    6.6547854300   16.7550524233	-1	 651	 652	 0	 0
O        18.0514605579    6.6977854300   17.3790524233	-1	 653	 654	 0	 0
O        15.5164605579    6.9207854300   16.7120524233	-1	 652	 654	 0	 0
O        13.9644605579    9.0157854300   16.3350524233	-1	 652	 648	 0	 0
O        18.6084605579    8.8847854300   15.9800524233	-1	 649	 653	 0	 0
O        11.7704605579   12.5247854300   19.1880524233	-1	 658	 647	 0	 0
O        12.0234605579    9.8887854300   19.2930524233	-1	 647	 656	 0	 0
O        12.2754605579    7.2367854300   19.2820524233	-1	 651	 656	 0	 0
O        16.5344605579   12.6417854300   18.7580524233	-1	 657	 650	 0	 0
O        16.3614605579   10.0557854300   19.2420524233	-1	 650	 655	 0	 0
O        16.3074605579    7.3827854300   19.2460524233	-1	 654	 655	 0	 0
O        11.4054605579    4.9977854300   18.2510524233	-1	 651	 659	 0	 0
O        16.2934605579    4.9517854300   18.3770524233	-1	 654	 680	 0	 0
O        14.2464605579    8.7847854300   20.1700524233	-1	 655	 656	 0	 0
O        14.2384605579   12.8887854300   20.0730524233	-1	 657	 658	 0	 0
O        12.6464605579    3.4007854300   16.5460524233	-1	 659	 660	 0	 0
O        18.0104605579    2.8927854300   17.3280524233	-1	 661	 680	 0	 0
O        15.2854605579    2.9307854300   16.5630524233	-1	 660	 680	 0	 0
O        13.5264605579    0.9817854300   16.0560524233	-1	 785	 660	 0	 0
O        18.3524605579    0.8177854300   15.6530524233	-1	 786	 661	 0	 0
O        11.6904605579    0.0347854300   18.9840524233	-1	 663	 784	 0	 0
O        12.2234605579    2.6397854300   19.0750524233	-1	 659	 663	 0	 0
O        15.9854605579    2.4347854300   19.3540524233	-1	 662	 680	 0	 0
O        13.9544605579    0.8517854300   20.0580524233	-1	 662	 663	 0	 0
O         4.2024605579    9.3317854300   13.6630524233	-1	 665	 664	 0	 0
O         4.1444605579   13.4287854300   13.9900524233	-1	 666	 667	 0	 0
O         3.0174605579   11.6777854300   16.6980524233	-1	 668	 669	 0	 0
O         3.8854605579   11.3757854300   19.1660524233	-1	 669	 670	 0	 0
O         6.2044605579   11.3357854300   20.4400524233	-1	 670	 671	 0	 0
O         8.4694605579   11.5307854300   19.0750524233	-1	 671	 672	 0	 0
O         8.1384605579   11.3677854300   16.4450524233	-1	 673	 672	 0	 0
O         5.5994605579   11.2857854300   17.1540524233	-1	 673	 669	 0	 0
O         2.7604605579    6.9777854300   16.9100524233	-1	 674	 675	 0	 0
O         3.9284605579    7.3097854300   19.2200524233	-1	 675	 676	 0	 0
O         6.2274605579    7.1837854300   20.5410524233	-1	 676	 677	 0	 0
O         8.3004605579    6.7547854300   18.9400524233	-1	 677	 678	 0	 0
O         7.9704605579    7.1067854300   16.3370524233	-1	 678	 679	 0	 0
O         5.4214605579    7.1947854300   17.0320524233	-1	 675	 679	 0	 0
O         3.8584605579    9.3047854300   17.4670524233	-1	 675	 669	 0	 0
O         8.5684605579    9.1727854300   17.9020524233	-1	 678	 672	 0	 0
O         1.6824605579   13.0407854300   14.8720524233	-1	 667	 668	 0	 0
O         1.9764605579   10.4297854300   14.5540524233	-1	 665	 668	 0	 0
O         2.1974605579    7.7717854300   14.4310524233	-1	 665	 674	 0	 0
O         6.4294605579   12.9767854300   15.2620524233	-1	 673	 666	 0	 0
O         6.3574605579   10.3677854300   14.7690524233	-1	 673	 664	 0	 0
O         6.1454605579    7.7237854300   14.5030524233	-1	 679	 664	 0	 0
O        10.5034605579   10.9787854300   17.4470524233	-1	 647	 672	 0	 0
O        10.3854605579    7.3037854300   17.3820524233	-1	 651	 678	 0	 0
Si        5.5384605579    1.5407854300   13.6060524233	-2	 578	 564	 759	 136
Si        2.3564605579    1.8097854300   13.5160524233	-2	 577	 564	 1204	 576
Si        5.8384605579   16.9637854300   14.1250524233	-2	 1421	 140	 565	 566
Si        2.7104605579   17.0387854300   13.9790524233	-2	 1268	 565	 1206	 567
Si        1.5584605579    3.9167854300   15.6290524233	-2	 577	 1275	 580	 568
Si        3.8334605579    2.9417854300   17.5190524233	-2	 569	 573	 574	 568
Si        4.5174605579    3.6257854300   20.5050524233	-2	 569	 570	 1266	 582
Si        7.6334605579    3.5667854300   20.3740524233	-2	 1265	 570	 571	 583
Si        8.6084605579    2.6787854300   17.5230524233	-2	 571	 572	 579	 575
Si        6.3474605579    3.6947854300   15.7300524233	-2	 578	 572	 573	 581
Si       11.8714605579   11.1647854300   18.3010524233	-2	 594	 635	 595	 584
Si       14.2104605579   10.6187854300   16.3030524233	-2	 585	 588	 592	 584
Si       18.9704605579   10.4447854300   16.2600524233	-2	 593	 586	 587	 935
Si       16.6924605579   11.1637854300   18.1080524233	-2	 587	 588	 597	 598
Si       11.7254605579    6.5487854300   17.9160524233	-2	 596	 636	 589	 600
Si       14.1054605579    7.4177854300   16.0820524233	-23	 89	 589	 591	 592
Si       18.8814605579    7.2897854300   16.1180524233	-23	 593	 90	 590	 936
Si       16.5234605579    6.4587854300   17.9100524233	-2	 601	 599	 590	 591
Si       15.8544605579    8.7297854300   20.0170524233	-2	 1271	 602	 598	 599
Si       12.6424605579    8.6047854300   20.0670524233	-2	 602	 595	 596	 1272
Si       15.8084605579   13.3217854300   20.0410524233	-2	 1273	 603	 1420	 597
Si       12.7014605579   13.4237854300   20.1670524233	-2	 594	 1419	 1274	 603
Si       11.6294605579    3.4517854300   17.7970524233	-2	 610	 579	 604	 600
Si       13.8894605579    2.5677854300   15.8880524233	-23	 91	 604	 606	 607
Si       18.7324605579    2.3727854300   16.0060524233	-23	 92	 605	 950	 608
Si       15.5624605579    0.9587854300   19.8290524233	-2	 771	 611	 612	 1276
Si       12.3954605579    1.2177854300   19.8390524233	-2	 609	 610	 612	 1277
Si        5.8034605579    9.1637854300   13.8430524233	-2	 633	 634	 188	 613
Si        2.5964605579    9.1777854300   13.7320524233	-2	 1218	 613	 630	 631
Si        5.7334605579   13.7887854300   14.0440524233	-2	 566	 632	 614	 192
Si        2.6124605579   13.9787854300   13.9300524233	-2	 1220	 629	 614	 567
Si        1.7864605579   11.6157854300   15.6470524233	-2	 629	 1269	 630	 615
Si        4.0924605579   10.9047854300   17.6290524233	-2	 627	 620	 615	 616
Si        4.6024605579   11.4327854300   20.6220524233	-2	 617	 1282	 1283	 616
Si        7.8134605579   11.4597854300   20.5520524233	-2	 617	 618	 1279	 1280
Si        8.9214605579   10.7497854300   17.7240524233	-2	 618	 619	 628	 635
Si        6.6184605579   11.4987854300   15.9010524233	-2	 633	 619	 620	 632
Si        1.6334605579    6.9987854300   15.7420524233	-2	 580	 621	 1270	 631
Si        4.0044605579    7.6987854300   17.6490524233	-2	 626	 627	 621	 622
Si        4.6494605579    6.8017854300   20.5830524233	-2	 1281	 582	 622	 623
Si        7.7644605579    6.6367854300   20.4630524233	-2	 583	 1278	 623	 624
Si        8.8114605579    7.5887854300   17.6430524233	-2	 625	 636	 628	 624
Si        6.4534605579    6.8257854300   15.8210524233	-2	 625	 634	 581	 626
Si       16.3934605579    3.2777854300   17.8500524233	-2	 601	 611	 605	 606
O         7.0554605579   -3.0112145700    9.9240524233	-1	 723	 724	 0	 0
O         5.8814605579   -2.5862145700   12.2170524233	-1	 724	 774	 0	 0
O         3.6334605579   -2.1992145700    0.0300524233	-1	 725	 726	 0	 0
O         4.4254605579   -2.5622145700    9.9940524233	-1	 724	 727	 0	 0
O         6.1414605579   -0.5972145700   10.4740524233	-1	 724	 222	 0	 0
O         8.0914605579    0.3297854300    7.5780524233	-1	 731	 221	 0	 0
O         7.7094605579   -2.3012145700    7.4470524233	-1	 731	 723	 0	 0
O         3.7114605579   -1.9882145700    7.4660524233	-1	 730	 727	 0	 0
O        19.6094605579   -2.8132145700   10.3860524233	-1	 876	 740	 0	 0
O         5.2954605579   -4.2812145700    0.2960524233	-1	 746	 725	 0	 0
O         1.8604605579   -4.1412145700    0.4520524233	-1	 747	 726	 0	 0
O         2.6194605579   -0.5362145700    2.8820524233	-1	 729	 728	 0	 0
O         3.5094605579   -0.4312145700    5.3570524233	-1	 729	 730	 0	 0
O         5.8234605579   -0.6202145700    6.6330524233	-1	 730	 731	 0	 0
O         8.0534605579   -0.9422145700    5.2480524233	-1	 731	 124	 0	 0
O         7.7344605579   -0.5932145700    2.6280524233	-1	 124	 732	 0	 0
O         5.2204605579   -0.3232145700    3.3490524233	-1	 729	 732	 0	 0
O         1.2134605579   -1.6332145700    0.9370524233	-1	 726	 728	 0	 0
O         5.9034605579   -2.0012145700    1.3900524233	-1	 732	 725	 0	 0
O         6.0544605579    0.6157854300    0.9940524233	-1	 732	 223	 0	 0
O        10.1024605579   -0.4072145700    3.6370524233	-1	 124	 120	 0	 0
O        17.0394605579   -6.5432145700    9.7110524233	-1	 733	 734	 0	 0
O        15.8714605579   -6.8412145700    7.3880524233	-1	 734	 735	 0	 0
O        13.5864605579   -6.7562145700    6.0560524233	-1	 735	 736	 0	 0
O        14.3794605579   -6.7142145700    9.5840524233	-1	 737	 734	 0	 0
O        18.5254605579   -5.0562145700   11.3130524233	-1	 740	 733	 0	 0
O        13.4484605579   -4.8722145700   11.2680524233	-1	 737	 745	 0	 0
O        15.3204605579   -4.7262145700    5.8910524233	-1	 742	 735	 0	 0
O        11.9654605579   -4.6682145700    5.6900524233	-1	 743	 736	 0	 0
O        15.8654605579   -1.0202145700   13.1500524233	-1	 738	 739	 0	 0
O        11.2404605579   -2.1782145700    5.2440524233	-1	 743	 120	 0	 0
O        17.1464605579   -3.4622145700    9.7100524233	-1	 740	 741	 0	 0
O        15.9934605579   -2.6912145700    7.4700524233	-1	 741	 742	 0	 0
O        13.6674605579   -2.6652145700    6.1990524233	-1	 742	 743	 0	 0
O        11.5434605579   -3.0582145700    7.7410524233	-1	 743	 744	 0	 0
O        11.9674605579   -2.8692145700   10.3530524233	-1	 745	 744	 0	 0
O        14.5064605579   -3.0632145700    9.6260524233	-1	 745	 741	 0	 0
O        11.5354605579   -0.6792145700    8.9080524233	-1	 121	 744	 0	 0
O        17.6624605579   -2.7562145700   12.2330524233	-1	 739	 740	 0	 0
O        13.8744605579   -2.4672145700   12.1630524233	-1	 745	 738	 0	 0
O         9.5644605579   -2.4022145700    9.3830524233	-1	 723	 744	 0	 0
O         3.4934605579   -6.2162145700   -0.0269475767	-1	 746	 747	 0	 0
Si        8.2094605579   -3.0732145700    8.7850524233	-2	 681	 1440	 687	 721
Si        5.8674605579   -2.1872145700   10.6490524233	-2	 681	 682	 684	 685
Si        5.1874605579   -2.6812145700    0.1080524233	-2	 793	 690	 683	 699
Si        2.0584605579   -2.6062145700   -0.0379475767	-2	 683	 698	 691	 1311
Si        3.3724605579   -2.8632145700    8.7840524233	-2	 684	 1285	 1439	 688
Si        1.4074605579   -0.2912145700    1.8350524233	-2	 698	 692	 1293	 150
Si        3.7394605579    0.1177854300    3.8500524233	-2	 697	 149	 692	 693
Si        4.2194605579   -0.6002145700    6.8050524233	-2	 688	 693	 694	 144
Si        7.4164605579   -0.8772145700    6.7320524233	-2	 695	 694	 687	 686
Si        6.2144605579   -0.5712145700    2.0840524233	-2	 697	 699	 700	 696
Si       18.1684605579   -6.5742145700   10.8730524233	-2	 706	 1291	 702	 1296
Si       15.7884605579   -7.2292145700    8.9530524233	-2	 705	 1290	 702	 703
Si       15.1574605579   -6.3232145700    6.0240524233	-2	 708	 1287	 703	 704
Si       12.0504605579   -6.2212145700    6.1490524233	-2	 709	 1286	 1288	 704
[...]
 1151      Si     31.5454605579    -1.8622145700    17.9790524233
 1152      Si     33.8634605579    -1.3312145700    15.9900524233
 1153      Si     36.3394605579    -2.0512145700    17.7310524233
 1154      Si     35.3124605579    -4.2132145700    19.6410524233
 1155      Si     32.1914605579    -4.2222145700    19.7580524233
 1156      Si     25.1664605579    -6.9412145700    13.5630524233
 1157      Si     22.0464605579    -6.7512145700    13.4500524233
 1158      O      27.2584605579    -3.3612145700    -3.4759475767
 1159      O      26.0844605579    -2.9352145700    -1.1819475767
 1160      O      21.6744605579    -3.1922145700    -1.4969475767
 1161      O      22.0754605579    -2.8552145700    -4.0929475767
 1162      O      24.6284605579    -2.9122145700    -3.4049475767
 1163      O      26.3444605579    -0.9472145700    -2.9259475767
 1164      O      21.6314605579    -0.7542145700    -2.5199475767
 1165      O      37.2424605579    -6.8922145700    -3.6879475767
 1166      O      34.5824605579    -7.0642145700    -3.8159475767
 1167      O      38.7284605579    -5.4052145700    -2.0869475767
 1168      O      33.6514605579    -5.2212145700    -2.1309475767
 1169      O      36.0684605579    -1.3692145700    -0.2499475767
 1170      O      37.3494605579    -3.8112145700    -3.6889475767
 1171      O      32.1704605579    -3.2182145700    -3.0459475767
 1172      O      34.7094605579    -3.4132145700    -3.7739475767
 1173      O      36.4194605579    -1.3672145700    -3.8669475767
 1174      O      31.7384605579    -1.0282145700    -4.4909475767
 1175      O      38.4044605579    -0.5032145700    -1.1079475767
 1176      O      37.8654605579    -3.1062145700    -1.1659475767
 1177      O      34.0774605579    -2.8162145700    -1.2359475767
 1178      O      29.7674605579    -2.7512145700    -4.0159475767
 1179      Si     28.4124605579    -3.4222145700    -4.6149475767
 1180      Si     26.0704605579    -2.5372145700    -2.7499475767
 1181      Si     21.2594605579    -2.3102145700    -2.7949475767
 1182      Si     23.5754605579    -3.2132145700    -4.6149475767
 1183      Si     38.3714605579    -6.9232145700    -2.5259475767
 1184      Si     35.9914605579    -7.5792145700    -4.4459475767
 1185      Si     33.5414605579    -6.7662145700    -2.5959475767
 1186      Si     34.4604605579    -1.4522145700    -0.4499475767
 1187      Si     37.6444605579    -1.7212145700    -0.3459475767
 1188      Si     38.4394605579    -3.8592145700    -2.4849475767
 1189      Si     36.1594605579    -2.9082145700    -4.3179475767
 1190      Si     31.3594605579    -2.5952145700    -4.3079475767
 1191      Si     33.6544605579    -3.6582145700    -2.5489475767
 1192      O      14.6234605579     5.4317854300    -0.6109475767
 1193      O      18.0554605579     5.3087854300    -0.7879475767
 1194      O      18.7024605579     2.8327854300    -1.3139475767
 1195      O      14.0384605579     3.1827854300    -1.7939475767
 1196      O      22.8824605579     3.4737854300     3.4070524233
 1197      O      22.3384605579     2.8797854300     0.8710524233
 1198      O      21.4544605579     5.0117854300     1.9020524233
 1199      O      12.6694605579    -0.9802145700     3.3860524233
 1200      O      13.5764605579    -0.7502145700     0.9220524233
 1201      O      18.1454605579    -1.1892145700     1.0550524233
 1202      O      15.9464605579    -2.4242145700     4.8420524233
 1203      O      20.1814605579    -0.7472145700     2.7240524233
 1204      H       1.7034605579     1.9447854300    12.0360524233
 1205      H       2.0304605579     1.7287854300     9.3970524233
 1206      H       2.1814605579    17.1707854300    12.4520524233
 1207      H       2.5824605579    17.5067854300     9.8560524233
 1208      H       4.4214605579    18.0247854300     8.0150524233
 1209      H       1.9234605579    18.3797854300     1.4860524233
 1210      H       6.8524605579    19.4147854300    11.0230524233
 1211      H       0.4724605579    11.7227854300     2.9990524233
 1212      H       0.3744605579     8.1117854300     2.8660524233
 1213      H      11.9514605579    17.8337854300     5.7930524233
 1214      H       0.2734605579     3.5447854300     2.6610524233
 1215      H      16.9264605579    18.9957854300    10.0810524233
 1216      H      12.2464605579    19.3337854300     9.4580524233
 1217      H      14.5844605579    17.5457854300    12.7120524233
 1218      H       1.9744605579     9.1477854300    12.2350524233
 1219      H       2.3094605579     9.4647854300     9.6130524233
 1220      H       2.0934605579    13.9307854300    12.3930524233
 1221      H       2.4744605579    13.7427854300     9.7720524233
 1222      H       1.7624605579     2.3117854300    -1.4319475767
 1223      H       2.2404605579    17.5377854300    -1.0159475767
 1224      H       2.6414605579    17.8737854300    -3.6119475767
 1225      H       6.9114605579    19.7827854300    -2.4449475767
 1226      H       8.6164605579     3.2927854300    -5.6379475767
 1227      H       8.4784605579    18.0797854300    -5.4719475767
 1228      H       4.4804605579    18.3917854300    -5.4529475767
 1229      H      16.6624605579     9.4397854300    -5.4479475767
 1230      H      12.1234605579     9.2267854300    -5.3849475767
 1231      H      16.6404605579    13.5387854300    -5.5309475767
 1232      H      12.2904605579    14.0467854300    -5.2379475767
 1233      H      16.4204605579     1.3847854300    -5.6799475767
 1234      H      11.7844605579     2.0827854300    -5.6509475767
 1235      H      16.7634605579    17.6897854300    -5.4489475767
 1236      H      12.3124605579    17.3227854300    -5.1779475767
 1237      H      16.9854605579    19.3627854300    -3.3869475767
 1238      H      12.3054605579    19.7007854300    -4.0099475767
 1239      H      14.6434605579    17.9137854300    -0.7559475767
 1240      H       2.0334605579     9.5147854300    -1.2329475767
 1241      H       2.1524605579    14.2987854300    -1.0749475767
 1242      H       2.5334605579    14.1107854300    -3.6959475767
 1243      H       8.7984605579     8.2637854300    -5.4759475767
 1244      H       8.5044605579    10.8967854300    -5.5979475767
 1245      H       8.3234605579    13.5577854300    -5.6009475767
 1246      H       4.3124605579    13.5617854300    -5.5939475767
 1247      H      26.9964605579    18.6987854300    11.0910524233
 1248      H      22.2824605579    18.8917854300    11.4970524233
 1249      H      24.5654605579    17.3077854300     8.0840524233
 1250      H      39.9424605579     0.1247854300    10.5100524233
 1251      H      40.4644605579    16.4827854300    11.0040524233
 1252      H      22.0674605579    17.6627854300     1.5550524233
 1253      H      38.7134605579    10.9577854300     1.5610524233
 1254      H      38.4214605579    10.6357854300     4.1930524233
 1255      H      38.6444605579     6.1997854300     1.3440524233
 1256      H      38.2544605579     6.3487854300     3.9800524233
 1257      H      38.5394605579     2.9167854300     1.2900524233
 1258      H      38.2134605579     2.5437854300     3.9290524233
 1259      H      32.0954605579    17.1167854300     5.8620524233
 1260      H      37.0714605579    18.2787854300    10.1500524233
 1261      H      32.3904605579    18.6167854300     9.5260524233
 1262      H      34.7294605579    16.8287854300    12.7810524233
 1263      H      40.2434605579     8.3757854300    10.7660524233
 1264      H      40.3464605579    11.9877854300    10.8950524233
 1265      H       8.4984605579     2.5577854300    21.2980524233
 1266      H       3.7524605579     2.8917854300    21.7300524233
 1267      H       3.7414605579     0.2947854300    21.2010524233
 1268      H       1.8644605579    18.0117854300    14.9540524233
 1269      H       0.4134605579    11.3547854300    16.4670524233
 1270      H       0.3154605579     7.7447854300    16.3340524233
 1271      H      16.5444605579     8.7047854300    21.4880524233
 1272      H      12.0054605579     8.4917854300    21.5500524233
 1273      H      16.5224605579    12.8037854300    21.4050524233
 1274      H      12.1724605579    13.3117854300    21.6980524233
 1275      H       0.2144605579     3.1777854300    16.1290524233
 1276      H      16.3034605579     0.6497854300    21.2550524233
 1277      H      11.6664605579     1.3477854300    21.2850524233
 1278      H       8.6814605579     7.5287854300    21.4600524233
 1279      H       8.3874605579    10.1617854300    21.3380524233
 1280      H       8.2054605579    12.8227854300    21.3350524233
 1281      H       3.9314605579     7.5377854300    21.8380524233
 1282      H       4.0844605579    10.1677854300    21.4950524233
 1283      H       4.1954605579    12.8267854300    21.3410524233
 1284      H       1.4714605579    -2.8422145700    11.9030524233
 1285      H       1.8724605579    -2.5062145700     9.3070524233
 1286      H      11.1194605579    -7.1202145700     5.1710524233
 1287      H      15.8824605579    -7.0032145700     4.7410524233
 1288      H      11.5204605579    -6.3332145700     7.6810524233
 1289      H      11.8314605579    -6.7412145700    10.2830524233
 1290      H      15.9044605579    -8.8362145700     9.1360524233
 1291      H      17.6144605579    -7.3612145700    12.1810524233
 1292      H      13.6694605579    -7.3202145700    12.1070524233
 1293      H       0.0374605579    -0.0302145700     2.6550524233
 1294      H       5.7214605579    -6.6602145700    12.1010524233
 1295      H       1.3834605579    -6.0822145700    11.8440524233
 1296      H      19.4924605579    -7.3082145700    10.2770524233
 1297      H       1.0304605579    -6.6052145700     0.8550524233
 1298      H       5.7784605579    -6.6692145700     1.2450524233
 1299      H       8.0334605579    -0.0382145700    21.0460524233
 1300      H       7.6504605579    -2.6682145700    20.9150524233
 1301      H       3.6524605579    -2.3562145700    20.9340524233
 1302      H      11.0604605579    -7.4882145700    18.6380524233
 1303      H      15.8234605579    -7.3712145700    18.2090524233
 1304      H      15.8124605579    -7.2092145700    20.8560524233
 1305      H      11.4614605579    -6.7012145700    21.1490524233
 1306      H      -0.0215394421    -0.3982145700    16.1230524233
 1307      H      15.9354605579    -3.0582145700    20.9370524233
 1308      H      11.4844605579    -3.4252145700    21.2090524233
 1309      H       0.9714605579    -6.9722145700    14.3230524233
 1310      H       5.7194605579    -7.0362145700    14.7130524233
 1311      H       1.5304605579    -2.4752145700    -1.5649475767
 1312      H       8.1504605579     0.6967854300    -5.8889475767
 1313      H       7.7684605579    -1.9332145700    -6.0209475767
 1314      H      15.9304605579    -6.4742145700    -6.0799475767
 1315      H      11.8904605579    -6.3742145700    -3.1849475767
 1316      H      15.9634605579    -8.4692145700    -4.3319475767
 1317      H      17.6734605579    -6.9932145700    -1.2869475767
 1318      H      13.7274605579    -6.9522145700    -1.3609475767
 1319      H      16.0524605579    -2.3232145700    -5.9979475767
 1320      H      11.6024605579    -2.6902145700    -5.7269475767
 1321      H       5.7804605579    -6.2932145700    -1.3669475767
 1322      H       1.4424605579    -5.7142145700    -1.6239475767
 1323      H      19.5514605579    -6.9412145700    -3.1909475767
 1324      H      39.7544605579    -3.5302145700    10.4550524233
 1325      H      31.2634605579    -7.8372145700     5.2390524233
 1326      H      36.0264605579    -7.7202145700     4.8100524233
 1327      H      31.6644605579    -7.0502145700     7.7490524233
 1328      H      31.9754605579    -7.4582145700    10.3510524233
 1329      H      36.0484605579    -9.5532145700     9.2050524233
 1330      H      37.7584605579    -8.0782145700    12.2500524233
 1331      H      33.8134605579    -8.0372145700    12.1750524233
 1332      H      38.2894605579    -1.9062145700     1.1240524233
 1333      H      37.9304605579    -1.6812145700     3.7420524233
 1334      H      25.8654605579    -7.3772145700    12.1700524233
 1335      H      21.5274605579    -6.7992145700    11.9120524233
 1336      H      39.6364605579    -8.0252145700    10.3450524233
 1337      H      21.1744605579    -7.3212145700     0.9230524233
 1338      H      25.9224605579    -7.3862145700     1.3140524233
 1339      H      28.6424605579     1.8417854300    21.3670524233
 1340      H      23.8964605579     2.1747854300    21.7980524233
 1341      H      23.8854605579    -0.4222145700    21.2690524233
 1342      H      22.0084605579    17.2947854300    15.0230524233
 1343      H      38.6554605579    10.5897854300    15.0290524233
 1344      H      38.3624605579    10.2687854300    17.6610524233
 1345      H      38.5854605579     5.8327854300    14.8120524233
 1346      H      38.1954605579     5.9807854300    17.4480524233
 1347      H      36.6894605579     7.9877854300    21.5570524233
 1348      H      32.1494605579     7.7747854300    21.6190524233
 1349      H      36.6674605579    12.0867854300    21.4730524233
 1350      H      32.3164605579    12.5947854300    21.7660524233
 1351      H      38.4804605579     2.5497854300    14.7580524233
 1352      H      38.1544605579     2.1757854300    17.3970524233
 1353      H      32.0364605579    16.7497854300    19.3290524233
 1354      H      36.4474605579    -0.0672145700    21.3240524233
 1355      H      31.8104605579     0.6307854300    21.3540524233
 1356      H      36.7894605579    16.2377854300    21.5550524233
 1357      H      32.3384605579    15.8707854300    21.8270524233
 1358      H      28.8254605579     6.8117854300    21.5280524233
 1359      H      28.5314605579     9.4447854300    21.4070524233
 1360      H      28.3494605579    12.1057854300    21.4030524233
 1361      H      24.0754605579     6.8207854300    21.9070524233
 1362      H      24.2294605579     9.4507854300    21.5630524233
 1363      H      24.3394605579    12.1097854300    21.4100524233
 1364      H      27.0554605579    19.0657854300    -2.3759475767
 1365      H      22.3414605579    19.2587854300    -1.9709475767
 1366      H      28.7604605579     2.5757854300    -5.5689475767
 1367      H      28.6234605579    17.3627854300    -5.4029475767
 1368      H      24.0144605579     2.9097854300    -5.1369475767
 1369      H      24.0034605579     0.3127854300    -5.6669475767
 1370      H      24.6244605579    17.6747854300    -5.3839475767
 1371      H      40.0004605579     0.4917854300    -2.9579475767
 1372      H      40.5234605579    16.8507854300    -2.4639475767
 1373      H      36.8064605579     8.7227854300    -5.3789475767
 1374      H      32.2674605579     8.5097854300    -5.3169475767
 1375      H      36.7844605579    12.8217854300    -5.4619475767
 1376      H      32.4344605579    13.3297854300    -5.1689475767
 1377      H      36.5654605579     0.6677854300    -5.6119475767
 1378      H      31.9284605579     1.3657854300    -5.5819475767
 1379      H      36.9074605579    16.9727854300    -5.3809475767
 1380      H      32.4564605579    16.6057854300    -5.1089475767
 1381      H      37.1294605579    18.6457854300    -3.3179475767
 1382      H      32.4494605579    18.9847854300    -3.9419475767
 1383      H      34.7874605579    17.1967854300    -0.6869475767
 1384      H      28.9434605579     7.5467854300    -5.4079475767
 1385      H      28.6484605579    10.1797854300    -5.5289475767
 1386      H      28.4674605579    12.8407854300    -5.5319475767
 1387      H      24.1934605579     7.5557854300    -5.0289475767
 1388      H      24.3464605579    10.1857854300    -5.3729475767
 1389      H      24.4574605579    12.8447854300    -5.5259475767
 1390      H      40.3024605579     8.7437854300    -2.7019475767
 1391      H      40.4054605579    12.3547854300    -2.5729475767
 1392      H      28.1774605579    -0.7552145700    21.1150524233
 1393      H      27.7944605579    -3.3852145700    20.9830524233
 1394      H      23.7964605579    -3.0732145700    21.0020524233
 1395      H      31.2044605579    -8.2052145700    18.7070524233
 1396      H      35.9674605579    -8.0882145700    18.2780524233
 1397      H      35.9564605579    -7.9262145700    20.9240524233
 1398      H      31.6064605579    -7.4182145700    21.2170524233
 1399      H      38.2304605579    -2.2742145700    14.5920524233
 1400      H      37.8714605579    -2.0492145700    17.2090524233
 1401      H      36.0794605579    -3.7752145700    21.0060524233
 1402      H      31.6284605579    -4.1422145700    21.2780524233
 1403      H      21.1154605579    -7.6892145700    14.3910524233
 1404      H      25.8634605579    -7.7532145700    14.7810524233
 1405      H      28.2944605579    -0.0202145700    -5.8209475767
 1406      H      27.9124605579    -2.6502145700    -5.9519475767
 1407      H      23.9144605579    -2.3382145700    -5.9329475767
 1408      H      39.8134605579    -3.1622145700    -3.0129475767
 1409      H      36.0744605579    -7.1912145700    -6.0119475767
 1410      H      32.0344605579    -7.0912145700    -3.1159475767
 1411      H      36.1074605579    -9.1862145700    -4.2629475767
 1412      H      37.8174605579    -7.7102145700    -1.2179475767
 1413      H      33.8724605579    -7.6692145700    -1.2919475767
 1414      H      36.1964605579    -3.0402145700    -5.9299475767
 1415      H      31.7464605579    -3.4072145700    -5.6579475767
 1416      H      25.9244605579    -7.0102145700    -1.2979475767
 1417      H      21.5864605579    -6.4312145700    -1.5549475767
 1418      H      39.6954605579    -7.6582145700    -3.1219475767
 1419      H      12.6404605579    14.7847854300    19.7640524233
 1420      H      15.9164605579    14.7347854300    19.9450524233
 1421      H       6.4584605579    17.5627854300    15.2530524233
 1422      H      26.6024605579    16.8457854300    15.3220524233
 1423      H      18.4584605579    17.1927854300    12.6050524233
 1424      H      38.6614605579    16.8437854300    -0.7949475767
 1425      H      38.6024605579    16.4767854300    12.6730524233
 1426      H      36.6434605579    16.4317854300    19.0810524233
 1427      H      28.6834605579    -4.7702145700    -4.9719475767
 1428      H      23.6724605579    -4.5832145700    -4.9739475767
 1429      H       5.0734605579     9.9097854300    -3.0059475767
 1430      H       4.7724605579     1.7707854300    -3.2219475767
 1431      H       4.6634605579    -2.1292145700    -3.3899475767
 1432      H      16.5584605579    17.5167854300     5.5440524233
 1433      H      26.6614605579    17.2137854300     1.8540524233
 1434      H       6.5174605579    17.9307854300     1.7850524233
 1435      H       8.5084605579    17.6497854300     8.1750524233
 1436      H      18.5174605579    17.5607854300    -0.8629475767
 1437      H      28.6524605579    16.9327854300     8.2430524233
 1438      H       8.5394605579    -4.0532145700    -5.0409475767
 1439      H       3.4694605579    -4.2342145700     8.4250524233
 1440      H       8.4804605579    -4.4202145700     8.4270524233
 1441      H      23.6134605579    -4.9502145700     8.4930524233
 1442      H      28.6244605579    -5.1372145700     8.4950524233
 1443      H      36.7024605579    16.7997854300     5.6130524233
 ----------------------------------------------------------------
 Nuclear Repulsion Energy =     2633046.99449693 hartrees
 There are      295 alpha and      295 beta electrons
 Total job time:  86488.43s(wall), 3097054.51s(cpu) 
 Sat Jun 26 10:26:50 2021

        *************************************************************
        *                                                           *
        *  Thank you very much for using Q-Chem.  Have a nice day.  *
        *                                                           *
        *************************************************************


