
Running Job 1 of 1 samp_352.qcin
qchem samp_352.qcin_44384.0 /scr/lance/183504/352/qchem44384/ 0
/home/mgcf/software-ws/qchem/qchem_540/exe/qcprog.exe_s samp_352.qcin_44384.0 /scr/lance/183504/352/qchem44384/
                  Welcome to Q-Chem
     A Quantum Leap Into The Future Of Chemistry


 Q-Chem 5.4, Q-Chem, Inc., Pleasanton, CA (2021)

 E. Epifanovsky,  A. T. B. Gilbert,  Xintian Feng,  Joonho Lee,  Yuezhi Mao,  
 N. Mardirossian,  P. Pokhilko,  A. White,  M. Wormit,  M. P. Coons,  
 A. L. Dempwolff,  Zhengting Gan,  D. Hait,  P. R. Horn,  L. D. Jacobson,  
 I. Kaliman,  J. Kussmann,  A. W. Lange,  Ka Un Lao,  D. S. Levine,  Jie Liu,  
 S. C. McKenzie,  A. F. Morrison,  K. Nanda,  F. Plasser,  D. R. Rehn,  
 M. L. Vidal,  Zhi-Qiang You,  Ying Zhu,  B. Alam,  B. Albrecht,  
 A. Aldossary,  E. Alguire,  J. H. Andersen,  D. Barton,  K. Begam,  A. Behn,  
 Y. A. Bernard,  E. J. Berquist,  H. Burton,  A. Carreras,  K. Carter-Fenk,  
 R. Chakraborty,  A. D. Chien,  K. D. Closser,  V. Cofer-Shabica,  
 S. Dasgupta,  Jia Deng,  M. de Wergifosse,  M. Diedenhofen,  Hainam Do,  
 S. Ehlert,  Po-Tung Fang,  S. Fatehi,  Qingguo Feng,  J. Gayvert,  
 Qinghui Ge,  G. Gidofalvi,  M. Goldey,  J. Gomes,  C. Gonzalez-Espinoza,  
 S. Gulania,  A. Gunina,  M. W. D. Hanson-Heine,  P. H. P. Harbach,  
 A. W. Hauser,  M. F. Herbst,  M. Hernandez Vera,  M. Hodecker,  
 Z. C. Holden,  S. Houck,  Xunkun Huang,  Kerwin Hui,  B. C. Huynh,  
 M. Ivanov,  Hyunjun Ji,  Hanjie Jiang,  B. Kaduk,  S. Kaehler,  
 K. Khistyaev,  Jaehoon Kim,  P. Klunzinger,  Z. Koczor-Benda,  
 Joong Hoon Koh,  D. Kosenkov,  L. Koulias,  T. Kowalczyk,  C. M. Krauter,  
 K. Kue,  A. Kunitsa,  T. Kus,  A. Landau,  K. V. Lawler,  D. Lefrancois,  
 S. Lehtola,  Rain Li,  Yi-Pei Li,  Jiashu Liang,  M. Liebenthal,  
 Hung-Hsuan Lin,  You-Sheng Lin,  Fenglai Liu,  Kuan-Yu Liu,  
 M. Loipersberger,  A. Luenser,  A. Manjanath,  P. Manohar,  E. Mansoor,  
 S. F. Manzer,  Shan-Ping Mao,  A. V. Marenich,  T. Markovich,  S. Mason,  
 S. A. Maurer,  P. F. McLaughlin,  M. F. S. J. Menger,  J.-M. Mewes,  
 S. A. Mewes,  P. Morgante,  J. W. Mullinax,  T. S. Nguyen-Beck,  
 K. J. Oosterbaan,  G. Paran,  Alexander C. Paul,  Suranjan K. Paul,  
 F. Pavosevic,  Zheng Pei,  S. Prager,  E. I. Proynov,  E. Ramos,  B. Rana,  
 A. E. Rask,  A. Rettig,  R. M. Richard,  F. Rob,  E. Rossomme,  T. Scheele,  
 M. Scheurer,  M. Schneider,  N. Sergueev,  S. M. Sharada,  W. Skomorowski,  
 D. W. Small,  C. J. Stein,  Yu-Chuan Su,  E. J. Sundstrom,  Zhen Tao,  
 J. Thirman,  T. Tsuchimochi,  N. M. Tubman,  S. P. Veccham,  O. Vydrov,  
 J. Wenzel,  J. Witte,  A. Yamada,  Kun Yao,  S. Yeganeh,  S. R. Yost,  
 A. Zech,  Igor Ying Zhang,  Xing Zhang,  Yu Zhang,  D. Zuev,  
 A. Aspuru-Guzik,  A. T. Bell,  N. A. Besley,  K. B. Bravaya,  B. R. Brooks,  
 D. Casanova,  Jeng-Da Chai,  S. Coriani,  C. J. Cramer,  
 A. E. DePrince, III,  R. A. DiStasio Jr.,  A. Dreuw,  B. D. Dunietz,  
 T. R. Furlani,  W. A. Goddard III,  S. Grimme,  S. Hammes-Schiffer,  
 T. Head-Gordon,  W. J. Hehre,  Chao-Ping Hsu,  T.-C. Jagau,  Yousung Jung,  
 A. Klamt,  Jing Kong,  D. S. Lambrecht,  WanZhen Liang,  N. J. Mayhall,  
 C. W. McCurdy,  J. B. Neaton,  C. Ochsenfeld,  J. A. Parkhill,  R. Peverati,  
 V. A. Rassolov,  Yihan Shao,  L. V. Slipchenko,  T. Stauch,  R. P. Steele,  
 J. E. Subotnik,  A. J. W. Thom,  A. Tkatchenko,  D. G. Truhlar,  
 T. Van Voorhis,  T. A. Wesolowski,  K. B. Whaley,  H. L. Woodcock III,  
 P. M. Zimmerman,  S. Faraji,  P. M. W. Gill,  M. Head-Gordon,  
 J. M. Herbert,  A. I. Krylov

 Contributors to earlier versions of Q-Chem not listed above: 
 R. D. Adamson,  B. Austin,  R. Baer,  J. Baker,  G. J. O. Beran,  
 K. Brandhorst,  S. T. Brown,  E. F. C. Byrd,  A. K. Chakraborty,  
 G. K. L. Chan,  Chun-Min Chang,  Yunqing Chen,  C.-L. Cheng,  
 Siu Hung Chien,  D. M. Chipman,  D. L. Crittenden,  H. Dachsel,  
 R. J. Doerksen,  A. D. Dutoi,  R. G. Edgar,  J. Fosso-Tande,  
 L. Fusti-Molnar,  D. Ghosh,  A. Ghysels,  A. Golubeva-Zadorozhnaya,  
 J. Gonthier,  M. S. Gordon,  S. R. Gwaltney,  G. Hawkins,  J. E. Herr,  
 A. Heyden,  S. Hirata,  E. G. Hohenstein,  G. Kedziora,  F. J. Keil,  
 C. Kelley,  Jihan Kim,  R. A. King,  R. Z. Khaliullin,  P. P. Korambath,  
 W. Kurlancheek,  A. Laurent,  A. M. Lee,  M. S. Lee,  S. V. Levchenko,  
 Ching Yeh Lin,  D. Liotard,  E. Livshits,  R. C. Lochan,  I. Lotan,  
 L. A. Martinez-Martinez,  P. E. Maslen,  N. Nair,  D. P. O'Neill,  
 D. Neuhauser,  E. Neuscamman,  C. M. Oana,  R. Olivares-Amaya,  R. Olson,  
 T. M. Perrine,  B. Peters,  P. A. Pieniazek,  A. Prociuk,  Y. M. Rhee,  
 J. Ritchie,  M. A. Rohrdanz,  E. Rosta,  N. J. Russ,  H. F. Schaefer III,  
 M. W. Schmidt,  N. E. Schultz,  S. Sharma,  N. Shenvi,  C. D. Sherrill,  
 A. C. Simmonett,  A. Sodt,  T. Stein,  D. Stuck,  K. S. Thanthiriwatte,  
 V. Vanovschi,  L. Vogt,  Tao Wang,  A. Warshel,  M. A. Watson,  
 C. F. Williams,  Q. Wu,  X. Xu,  Jun Yang,  W. Zhang,  Yan Zhao

 Please cite Q-Chem as follows:
 Y. Shao et al., Mol. Phys. 113, 184-215 (2015)
 DOI: 10.1080/00268976.2014.952696

 Q-Chem 5.4.0 for Intel X86 EM64T Linux

 Parts of Q-Chem use Armadillo 9.800.1 (Horizon Scraper).
 http://arma.sourceforge.net/

 Q-Chem begins on Sun Oct 17 19:33:31 2021  

 Host: 
0

     Scratch files written to /scr/lance/183504/352/qchem44384//
 May1621 |scratch|qcdevops|jenkins|workspace|build_RNUM -1
 Processing $rem in /home/mgcf/software-ws/qchem/qchem_540/config/preferences:
 Processing $rem in /home/lance/.qchemrc:
Applying user defined connections for MM calculations

 Checking the input file for inconsistencies... 	...done.

--------------------------------------------------------------
User input:
--------------------------------------------------------------
$rem
JOBTYPE  sp
EXCHANGE   wb97x-d
BASIS   def2-svp
UNRESTRICTED   False
geom_opt_coords   0
max_scf_cycles   1000
geom_opt_max_cycles   1
QM_MM_INTERFACE   Zeolite
force_field   charmm27
user_connect   TRUE
symmetry   off
sym_ignore   TRUE
print_input   true
qmmm_print   false
qm_mm   TRUE
thresh 10
scf_convergence 7
AIMD_FIXED_ATOMS 1381
geom_opt_dmax   80
pop_mulliken false
$end

$QM_ATOMS
1
2
3
4
5
6
7
8
9
10
11
12
13
14
15
16
17
18
19
20
21
22
23
24
25
26
27
28
29
30
31
32
33
34
35
36
37
38
39
40
41
42
43
44
45
46
47
48
49
50
51
52
53
54
55
56
57
58
59
60
$end

$force_field_params
NumAtomTypes   3000
AtomType   -1   -0.35   1.77   -0.018
AtomType   -13   -0.35   1.77   -0.018
AtomType   -2   0.7   2.2   -0.047
AtomType   -3   -0.175   0.01   0
AtomType   -4    0.175   0.01   0
AtomType   -23   0.525   2.2   -0.047
AtomType   -22   0.35   2.2   -0.047
AtomType   -21   0.175   2.2   -0.047
AtomType   -111   0   1.34   -0.024
AtomType   -112   0   1.34   -0.035
AtomType   -121   0   2.05   -0.078
AtomType   -122   0   2.01   -0.056
AtomType   -912   0   2.175   -0.055
AtomType   -916   0   1.77   -0.1521
AtomType   -901   0   1.32   -0.022
AtomType   -801   0   0.2245   -0.046
AtomType    -31 0   1.9924  -0.07
AtomType    -32 0   2.09    -0.068
AtomType    -33 0   2.08    -0.064
AtomType    -34 0   1.87    -0.18
AtomType    -35 0   2.00    -0.032
AtomType    -41 0   0.2245  -0.046
AtomType    -42 0   0.87    -0.012
AtomType    -43 0   1.1 -0.046
AtomType    -44 0   1.3582  -0.03
AtomType    -45 0   1.26    -0.026
AtomType    -46 0   1.25    -0.031
AtomType    -47 0   1.34    -0.045
AtomType    -51 0   1.765   -0.1921
AtomType    -61 0   1.98    -0.07
AtomType    -62 0   1.89    -0.06
AtomType    -63 0   1.79    -0.18
Bond   -1   -2   304   1.682
Bond   -1   -3   204   1.489
Bond   -2   -3   100   1.45
Angle   -1   -2   -1   34   150
Angle   -2   -1   -2   30   121.5
Angle   -3   -1   -2   44   118
Angle   -1   -2   -3   30   109.5
Torsion   -2   -1   -2   -1   0.1   120   3
Torsion   -2   -1   -2   -3   0.3   120   3
Bond   -121   -122   222.5   1.528
Bond   -121   -121   222.5   1.528
Bond   -122   -122   222.5   1.528
Bond   -111   -121   309   1.089
Bond   -112   -122   309   1.089
Angle   -121   -122   -122   58   115
Angle   -121   -121   -122   58   115
Angle   -121   -121   -121   58   115
Angle   -122   -122   -122   58   115
Angle   -111   -121   -111   35.5   108.4
Angle   -111   -121   -121   35.5   108.4
Angle   -111   -121   -122   35.5   108.4
Angle   -112   -122   -112   35.5   108.4
Angle   -112   -122   -121   35.5   108.4
Angle   -112   -122   -122   35.5   108.4
Torsion   -111   -121   -122   -122   0.16   120   3
Torsion   -111   -121   -121   -121   0.16   120   3
Torsion   -111   -121   -121   -111   0.16   120   3
Torsion   -111   -121   -122   -112   0.16   120   3
Torsion   -112   -122   -122   -122   95.16   180   2
Torsion   -112   -122   -122   -112   95.16   180   2
Torsion   -121   -122   -122   -122   95.16   180   2
Torsion   -121   -122   -122   -112   95.16   180   2
Torsion   -122   -122   -122   -112   95.16   180   2
Torsion   -112   -122   -122   -121   95.16   180   2
Bond   -13   -1   304   1.682
Bond   -13   -121   222.5   1.55
Angle   -13   -121   -121   40   111
Angle   -13   -121   -1   34   150
Angle   -13   -121   -111   35.5   115
Torsion   -1   -13   -121   -121   0.2   120   3
Torsion   -1   -13   -121   -111   0.2   120   3
Bond   -901   -912   342.991   1.093
Bond   -801   -916   560.905   0.972
Bond   -916   -912   363.214   1.418
Bond   -912   -912   306.432   1.508
Angle   -916   -912   -912   71.39   108.133
Angle   -916   -912   -916   83.192   111.368
Angle   -916   -912   -901   56.205   108.577
Angle   -912   -912   -901   45.77   110.549
Angle   -912   -916   -912   86.143   106.926
Angle   -912   -912   -912   61.243   109.608
Angle   -912   -916   -801   57.069   106.503
Angle   -901   -912   -901   37.134   108.836
Torsion   -912   -916   -912   -912   -0.341   0   1
Torsion   -912   -916   -912   -912   0.378   180   2
Torsion   -912   -916   -912   -912   0.378   0   3
Torsion   -912   -916   -912   -901   0.285   0   1
Torsion   -912   -916   -912   -901   0.16   180   2
Torsion   -912   -916   -912   -901   0.285   0   3
Torsion   -912   -912   -912   -912   0.051   0   1
Torsion   -912   -912   -912   -912   0.341   180   2
Torsion   -912   -912   -912   -912   0.166   0   3
Torsion   -912   -912   -912   -916   -0.344   0   1
Torsion   -912   -912   -912   -916   0.878   180   2
Torsion   -912   -912   -912   -916   0.238   0   3
Torsion   -912   -912   -912   -901   0.32   0   1
Torsion   -912   -912   -912   -901   -0.315   180   2
Torsion   -912   -912   -912   -901   0.132   0   3
Torsion   -912   -912   -916   -801   0.135   180   2
Torsion   -912   -912   -916   -801   0.118   0   3
Torsion   -916   -912   -912   -916   0.204   0   1
Torsion   -916   -912   -912   -916   0.699   180   2
Torsion   -916   -912   -912   -916   0.48   0   3
Torsion   -916   -912   -912   -901   -0.327   0   1
Torsion   -916   -912   -912   -901   0.536   180   2
Torsion   -916   -912   -912   -901   0.14   0   3
Torsion   -916   -912   -916   -801   0.744   0   1
Torsion   -916   -912   -916   -801   -1.7   180   2
Torsion   -916   -912   -916   -801   -0.16   0   3
Torsion   -912   -916   -912   -916   0.115   0   1
Torsion   -912   -916   -912   -916   -0.355   180   2
Torsion   -912   -916   -912   -916   0.361   0   3
Torsion   -901   -912   -912   -901   0.142   0   1
Torsion   -901   -912   -912   -901   -0.693   180   2
Torsion   -901   -912   -912   -901   0.157   0   3
Torsion   -901   -912   -916   -801   0.298   0   1
Torsion   -901   -912   -916   -801   -0.138   180   2
Torsion   -901   -912   -916   -801   0.173   0   3
Imptor	-912   -912   -916   -916       0.000  0     0.00
Imptor	-912   -916   -916   -901     0.000  0     0.00
Imptor	-912   -912   -916   -912       0.000  0     0.00
Imptor	-912   -912   -916   -901     0.000  0     0.00
Imptor	-912   -912   -912   -916       0.000  0     0.00
Imptor	-912   -912   -912   -901     0.000  0     0.00
Imptor	-912   -916   -912   -901     0.000  0     0.00
$end

$opt
fixed
61 XYZ
62 XYZ
63 XYZ
64 XYZ
65 XYZ
66 XYZ
67 XYZ
68 XYZ
69 XYZ
70 XYZ
71 XYZ
72 XYZ
73 XYZ
74 XYZ
75 XYZ
76 XYZ
77 XYZ
78 XYZ
79 XYZ
80 XYZ
81 XYZ
82 XYZ
83 XYZ
84 XYZ
85 XYZ
86 XYZ
87 XYZ
88 XYZ
89 XYZ
90 XYZ
91 XYZ
92 XYZ
93 XYZ
94 XYZ
95 XYZ
96 XYZ
97 XYZ
98 XYZ
99 XYZ
100 XYZ
101 XYZ
102 XYZ
103 XYZ
104 XYZ
105 XYZ
106 XYZ
107 XYZ
108 XYZ
109 XYZ
110 XYZ
111 XYZ
112 XYZ
113 XYZ
114 XYZ
115 XYZ
116 XYZ
117 XYZ
118 XYZ
119 XYZ
120 XYZ
121 XYZ
122 XYZ
123 XYZ
124 XYZ
125 XYZ
126 XYZ
127 XYZ
128 XYZ
129 XYZ
130 XYZ
131 XYZ
132 XYZ
133 XYZ
134 XYZ
135 XYZ
136 XYZ
137 XYZ
138 XYZ
139 XYZ
140 XYZ
141 XYZ
142 XYZ
143 XYZ
144 XYZ
145 XYZ
146 XYZ
147 XYZ
148 XYZ
149 XYZ
150 XYZ
151 XYZ
152 XYZ
153 XYZ
154 XYZ
155 XYZ
156 XYZ
157 XYZ
158 XYZ
159 XYZ
160 XYZ
161 XYZ
162 XYZ
163 XYZ
164 XYZ
165 XYZ
166 XYZ
167 XYZ
168 XYZ
169 XYZ
170 XYZ
171 XYZ
172 XYZ
173 XYZ
174 XYZ
175 XYZ
176 XYZ
177 XYZ
178 XYZ
179 XYZ
180 XYZ
181 XYZ
182 XYZ
183 XYZ
184 XYZ
185 XYZ
186 XYZ
187 XYZ
188 XYZ
189 XYZ
190 XYZ
191 XYZ
192 XYZ
193 XYZ
194 XYZ
195 XYZ
196 XYZ
197 XYZ
198 XYZ
199 XYZ
200 XYZ
201 XYZ
202 XYZ
203 XYZ
204 XYZ
205 XYZ
206 XYZ
207 XYZ
208 XYZ
209 XYZ
210 XYZ
211 XYZ
212 XYZ
213 XYZ
214 XYZ
215 XYZ
216 XYZ
217 XYZ
218 XYZ
219 XYZ
220 XYZ
221 XYZ
222 XYZ
223 XYZ
224 XYZ
225 XYZ
226 XYZ
227 XYZ
228 XYZ
229 XYZ
230 XYZ
231 XYZ
232 XYZ
233 XYZ
234 XYZ
235 XYZ
236 XYZ
237 XYZ
238 XYZ
239 XYZ
240 XYZ
241 XYZ
242 XYZ
243 XYZ
244 XYZ
245 XYZ
246 XYZ
247 XYZ
248 XYZ
249 XYZ
250 XYZ
251 XYZ
252 XYZ
253 XYZ
254 XYZ
255 XYZ
256 XYZ
257 XYZ
258 XYZ
259 XYZ
260 XYZ
261 XYZ
262 XYZ
263 XYZ
264 XYZ
265 XYZ
266 XYZ
267 XYZ
268 XYZ
269 XYZ
270 XYZ
271 XYZ
272 XYZ
273 XYZ
274 XYZ
275 XYZ
276 XYZ
277 XYZ
278 XYZ
279 XYZ
280 XYZ
281 XYZ
282 XYZ
283 XYZ
284 XYZ
285 XYZ
286 XYZ
287 XYZ
288 XYZ
289 XYZ
290 XYZ
291 XYZ
292 XYZ
293 XYZ
294 XYZ
295 XYZ
296 XYZ
297 XYZ
298 XYZ
299 XYZ
300 XYZ
301 XYZ
302 XYZ
303 XYZ
304 XYZ
305 XYZ
306 XYZ
307 XYZ
308 XYZ
309 XYZ
310 XYZ
311 XYZ
312 XYZ
313 XYZ
314 XYZ
315 XYZ
316 XYZ
317 XYZ
318 XYZ
319 XYZ
320 XYZ
321 XYZ
322 XYZ
323 XYZ
324 XYZ
325 XYZ
326 XYZ
327 XYZ
328 XYZ
329 XYZ
330 XYZ
331 XYZ
332 XYZ
333 XYZ
334 XYZ
335 XYZ
336 XYZ
337 XYZ
338 XYZ
339 XYZ
340 XYZ
341 XYZ
342 XYZ
343 XYZ
344 XYZ
345 XYZ
346 XYZ
347 XYZ
348 XYZ
349 XYZ
350 XYZ
351 XYZ
352 XYZ
353 XYZ
354 XYZ
355 XYZ
356 XYZ
357 XYZ
358 XYZ
359 XYZ
360 XYZ
361 XYZ
362 XYZ
363 XYZ
364 XYZ
365 XYZ
366 XYZ
367 XYZ
368 XYZ
369 XYZ
370 XYZ
371 XYZ
372 XYZ
373 XYZ
374 XYZ
375 XYZ
376 XYZ
377 XYZ
378 XYZ
379 XYZ
380 XYZ
381 XYZ
382 XYZ
383 XYZ
384 XYZ
385 XYZ
386 XYZ
387 XYZ
388 XYZ
389 XYZ
390 XYZ
391 XYZ
392 XYZ
393 XYZ
394 XYZ
395 XYZ
396 XYZ
397 XYZ
398 XYZ
399 XYZ
400 XYZ
401 XYZ
402 XYZ
403 XYZ
404 XYZ
405 XYZ
406 XYZ
407 XYZ
408 XYZ
409 XYZ
410 XYZ
411 XYZ
412 XYZ
413 XYZ
414 XYZ
415 XYZ
416 XYZ
417 XYZ
418 XYZ
419 XYZ
420 XYZ
421 XYZ
422 XYZ
423 XYZ
424 XYZ
425 XYZ
426 XYZ
427 XYZ
428 XYZ
429 XYZ
430 XYZ
431 XYZ
432 XYZ
433 XYZ
434 XYZ
435 XYZ
436 XYZ
437 XYZ
438 XYZ
439 XYZ
440 XYZ
441 XYZ
442 XYZ
443 XYZ
444 XYZ
445 XYZ
446 XYZ
447 XYZ
448 XYZ
449 XYZ
450 XYZ
451 XYZ
452 XYZ
453 XYZ
454 XYZ
455 XYZ
456 XYZ
457 XYZ
458 XYZ
459 XYZ
460 XYZ
461 XYZ
462 XYZ
463 XYZ
464 XYZ
465 XYZ
466 XYZ
467 XYZ
468 XYZ
469 XYZ
470 XYZ
471 XYZ
472 XYZ
473 XYZ
474 XYZ
475 XYZ
476 XYZ
477 XYZ
478 XYZ
479 XYZ
480 XYZ
481 XYZ
482 XYZ
483 XYZ
484 XYZ
485 XYZ
486 XYZ
487 XYZ
488 XYZ
489 XYZ
490 XYZ
491 XYZ
492 XYZ
493 XYZ
494 XYZ
495 XYZ
496 XYZ
497 XYZ
498 XYZ
499 XYZ
500 XYZ
501 XYZ
502 XYZ
503 XYZ
504 XYZ
505 XYZ
506 XYZ
507 XYZ
508 XYZ
509 XYZ
510 XYZ
511 XYZ
512 XYZ
513 XYZ
514 XYZ
515 XYZ
516 XYZ
517 XYZ
518 XYZ
519 XYZ
520 XYZ
521 XYZ
522 XYZ
523 XYZ
524 XYZ
525 XYZ
526 XYZ
527 XYZ
528 XYZ
529 XYZ
530 XYZ
531 XYZ
532 XYZ
533 XYZ
534 XYZ
535 XYZ
536 XYZ
537 XYZ
538 XYZ
539 XYZ
540 XYZ
541 XYZ
542 XYZ
543 XYZ
544 XYZ
545 XYZ
546 XYZ
547 XYZ
548 XYZ
549 XYZ
550 XYZ
551 XYZ
552 XYZ
553 XYZ
554 XYZ
555 XYZ
556 XYZ
557 XYZ
558 XYZ
559 XYZ
560 XYZ
561 XYZ
562 XYZ
563 XYZ
564 XYZ
565 XYZ
566 XYZ
567 XYZ
568 XYZ
569 XYZ
570 XYZ
571 XYZ
572 XYZ
573 XYZ
574 XYZ
575 XYZ
576 XYZ
577 XYZ
578 XYZ
579 XYZ
580 XYZ
581 XYZ
582 XYZ
583 XYZ
584 XYZ
585 XYZ
586 XYZ
587 XYZ
588 XYZ
589 XYZ
590 XYZ
591 XYZ
592 XYZ
593 XYZ
594 XYZ
595 XYZ
596 XYZ
597 XYZ
598 XYZ
599 XYZ
600 XYZ
601 XYZ
602 XYZ
603 XYZ
604 XYZ
605 XYZ
606 XYZ
607 XYZ
608 XYZ
609 XYZ
610 XYZ
611 XYZ
612 XYZ
613 XYZ
614 XYZ
615 XYZ
616 XYZ
617 XYZ
618 XYZ
619 XYZ
620 XYZ
621 XYZ
622 XYZ
623 XYZ
624 XYZ
625 XYZ
626 XYZ
627 XYZ
628 XYZ
629 XYZ
630 XYZ
631 XYZ
632 XYZ
633 XYZ
634 XYZ
635 XYZ
636 XYZ
637 XYZ
638 XYZ
639 XYZ
640 XYZ
641 XYZ
642 XYZ
643 XYZ
644 XYZ
645 XYZ
646 XYZ
647 XYZ
648 XYZ
649 XYZ
650 XYZ
651 XYZ
652 XYZ
653 XYZ
654 XYZ
655 XYZ
656 XYZ
657 XYZ
658 XYZ
659 XYZ
660 XYZ
661 XYZ
662 XYZ
663 XYZ
664 XYZ
665 XYZ
666 XYZ
667 XYZ
668 XYZ
669 XYZ
670 XYZ
671 XYZ
672 XYZ
673 XYZ
674 XYZ
675 XYZ
676 XYZ
677 XYZ
678 XYZ
679 XYZ
680 XYZ
681 XYZ
682 XYZ
683 XYZ
684 XYZ
685 XYZ
686 XYZ
687 XYZ
688 XYZ
689 XYZ
690 XYZ
691 XYZ
692 XYZ
693 XYZ
694 XYZ
695 XYZ
696 XYZ
697 XYZ
698 XYZ
699 XYZ
700 XYZ
701 XYZ
702 XYZ
703 XYZ
704 XYZ
705 XYZ
706 XYZ
707 XYZ
708 XYZ
709 XYZ
710 XYZ
711 XYZ
712 XYZ
713 XYZ
714 XYZ
715 XYZ
716 XYZ
717 XYZ
718 XYZ
719 XYZ
720 XYZ
721 XYZ
722 XYZ
723 XYZ
724 XYZ
725 XYZ
726 XYZ
727 XYZ
728 XYZ
729 XYZ
730 XYZ
731 XYZ
732 XYZ
733 XYZ
734 XYZ
735 XYZ
736 XYZ
737 XYZ
738 XYZ
739 XYZ
740 XYZ
741 XYZ
742 XYZ
743 XYZ
744 XYZ
745 XYZ
746 XYZ
747 XYZ
748 XYZ
749 XYZ
750 XYZ
751 XYZ
752 XYZ
753 XYZ
754 XYZ
755 XYZ
756 XYZ
757 XYZ
758 XYZ
759 XYZ
760 XYZ
761 XYZ
762 XYZ
763 XYZ
764 XYZ
765 XYZ
766 XYZ
767 XYZ
768 XYZ
769 XYZ
770 XYZ
771 XYZ
772 XYZ
773 XYZ
774 XYZ
775 XYZ
776 XYZ
777 XYZ
778 XYZ
779 XYZ
780 XYZ
781 XYZ
782 XYZ
783 XYZ
784 XYZ
785 XYZ
786 XYZ
787 XYZ
788 XYZ
789 XYZ
790 XYZ
791 XYZ
792 XYZ
793 XYZ
794 XYZ
795 XYZ
796 XYZ
797 XYZ
798 XYZ
799 XYZ
800 XYZ
801 XYZ
802 XYZ
803 XYZ
804 XYZ
805 XYZ
806 XYZ
807 XYZ
808 XYZ
809 XYZ
810 XYZ
811 XYZ
812 XYZ
813 XYZ
814 XYZ
815 XYZ
816 XYZ
817 XYZ
818 XYZ
819 XYZ
820 XYZ
821 XYZ
822 XYZ
823 XYZ
824 XYZ
825 XYZ
826 XYZ
827 XYZ
828 XYZ
829 XYZ
830 XYZ
831 XYZ
832 XYZ
833 XYZ
834 XYZ
835 XYZ
836 XYZ
837 XYZ
838 XYZ
839 XYZ
840 XYZ
841 XYZ
842 XYZ
843 XYZ
844 XYZ
845 XYZ
846 XYZ
847 XYZ
848 XYZ
849 XYZ
850 XYZ
851 XYZ
852 XYZ
853 XYZ
854 XYZ
855 XYZ
856 XYZ
857 XYZ
858 XYZ
859 XYZ
860 XYZ
861 XYZ
862 XYZ
863 XYZ
864 XYZ
865 XYZ
866 XYZ
867 XYZ
868 XYZ
869 XYZ
870 XYZ
871 XYZ
872 XYZ
873 XYZ
874 XYZ
875 XYZ
876 XYZ
877 XYZ
878 XYZ
879 XYZ
880 XYZ
881 XYZ
882 XYZ
883 XYZ
884 XYZ
885 XYZ
886 XYZ
887 XYZ
888 XYZ
889 XYZ
890 XYZ
891 XYZ
892 XYZ
893 XYZ
894 XYZ
895 XYZ
896 XYZ
897 XYZ
898 XYZ
899 XYZ
900 XYZ
901 XYZ
902 XYZ
903 XYZ
904 XYZ
905 XYZ
906 XYZ
907 XYZ
908 XYZ
909 XYZ
910 XYZ
911 XYZ
912 XYZ
913 XYZ
914 XYZ
915 XYZ
916 XYZ
917 XYZ
918 XYZ
919 XYZ
920 XYZ
921 XYZ
922 XYZ
923 XYZ
924 XYZ
925 XYZ
926 XYZ
927 XYZ
928 XYZ
929 XYZ
930 XYZ
931 XYZ
932 XYZ
933 XYZ
934 XYZ
935 XYZ
936 XYZ
937 XYZ
938 XYZ
939 XYZ
940 XYZ
941 XYZ
942 XYZ
943 XYZ
944 XYZ
945 XYZ
946 XYZ
947 XYZ
948 XYZ
949 XYZ
950 XYZ
951 XYZ
952 XYZ
953 XYZ
954 XYZ
955 XYZ
956 XYZ
957 XYZ
958 XYZ
959 XYZ
960 XYZ
961 XYZ
962 XYZ
963 XYZ
964 XYZ
965 XYZ
966 XYZ
967 XYZ
968 XYZ
969 XYZ
970 XYZ
971 XYZ
972 XYZ
973 XYZ
974 XYZ
975 XYZ
976 XYZ
977 XYZ
978 XYZ
979 XYZ
980 XYZ
981 XYZ
982 XYZ
983 XYZ
984 XYZ
985 XYZ
986 XYZ
987 XYZ
988 XYZ
989 XYZ
990 XYZ
991 XYZ
992 XYZ
993 XYZ
994 XYZ
995 XYZ
996 XYZ
997 XYZ
998 XYZ
999 XYZ
1000 XYZ
1001 XYZ
1002 XYZ
1003 XYZ
1004 XYZ
1005 XYZ
1006 XYZ
1007 XYZ
1008 XYZ
1009 XYZ
1010 XYZ
1011 XYZ
1012 XYZ
1013 XYZ
1014 XYZ
1015 XYZ
1016 XYZ
1017 XYZ
1018 XYZ
1019 XYZ
1020 XYZ
1021 XYZ
1022 XYZ
1023 XYZ
1024 XYZ
1025 XYZ
1026 XYZ
1027 XYZ
1028 XYZ
1029 XYZ
1030 XYZ
1031 XYZ
1032 XYZ
1033 XYZ
1034 XYZ
1035 XYZ
1036 XYZ
1037 XYZ
1038 XYZ
1039 XYZ
1040 XYZ
1041 XYZ
1042 XYZ
1043 XYZ
1044 XYZ
1045 XYZ
1046 XYZ
1047 XYZ
1048 XYZ
1049 XYZ
1050 XYZ
1051 XYZ
1052 XYZ
1053 XYZ
1054 XYZ
1055 XYZ
1056 XYZ
1057 XYZ
1058 XYZ
1059 XYZ
1060 XYZ
1061 XYZ
1062 XYZ
1063 XYZ
1064 XYZ
1065 XYZ
1066 XYZ
1067 XYZ
1068 XYZ
1069 XYZ
1070 XYZ
1071 XYZ
1072 XYZ
1073 XYZ
1074 XYZ
1075 XYZ
1076 XYZ
1077 XYZ
1078 XYZ
1079 XYZ
1080 XYZ
1081 XYZ
1082 XYZ
1083 XYZ
1084 XYZ
1085 XYZ
1086 XYZ
1087 XYZ
1088 XYZ
1089 XYZ
1090 XYZ
1091 XYZ
1092 XYZ
1093 XYZ
1094 XYZ
1095 XYZ
1096 XYZ
1097 XYZ
1098 XYZ
1099 XYZ
1100 XYZ
1101 XYZ
1102 XYZ
1103 XYZ
1104 XYZ
1105 XYZ
1106 XYZ
1107 XYZ
1108 XYZ
1109 XYZ
1110 XYZ
1111 XYZ
1112 XYZ
1113 XYZ
1114 XYZ
1115 XYZ
1116 XYZ
1117 XYZ
1118 XYZ
1119 XYZ
1120 XYZ
1121 XYZ
1122 XYZ
1123 XYZ
1124 XYZ
1125 XYZ
1126 XYZ
1127 XYZ
1128 XYZ
1129 XYZ
1130 XYZ
1131 XYZ
1132 XYZ
1133 XYZ
1134 XYZ
1135 XYZ
1136 XYZ
1137 XYZ
1138 XYZ
1139 XYZ
1140 XYZ
1141 XYZ
1142 XYZ
1143 XYZ
1144 XYZ
1145 XYZ
1146 XYZ
1147 XYZ
1148 XYZ
1149 XYZ
1150 XYZ
1151 XYZ
1152 XYZ
1153 XYZ
1154 XYZ
1155 XYZ
1156 XYZ
1157 XYZ
1158 XYZ
1159 XYZ
1160 XYZ
1161 XYZ
1162 XYZ
1163 XYZ
1164 XYZ
1165 XYZ
1166 XYZ
1167 XYZ
1168 XYZ
1169 XYZ
1170 XYZ
1171 XYZ
1172 XYZ
1173 XYZ
1174 XYZ
1175 XYZ
1176 XYZ
1177 XYZ
1178 XYZ
1179 XYZ
1180 XYZ
1181 XYZ
1182 XYZ
1183 XYZ
1184 XYZ
1185 XYZ
1186 XYZ
1187 XYZ
1188 XYZ
1189 XYZ
1190 XYZ
1191 XYZ
1192 XYZ
1193 XYZ
1194 XYZ
1195 XYZ
1196 XYZ
1197 XYZ
1198 XYZ
1199 XYZ
1200 XYZ
1201 XYZ
1202 XYZ
1203 XYZ
1204 XYZ
1205 XYZ
1206 XYZ
1207 XYZ
1208 XYZ
1209 XYZ
1210 XYZ
1211 XYZ
1212 XYZ
1213 XYZ
1214 XYZ
1215 XYZ
1216 XYZ
1217 XYZ
1218 XYZ
1219 XYZ
1220 XYZ
1221 XYZ
1222 XYZ
1223 XYZ
1224 XYZ
1225 XYZ
1226 XYZ
1227 XYZ
1228 XYZ
1229 XYZ
1230 XYZ
1231 XYZ
1232 XYZ
1233 XYZ
1234 XYZ
1235 XYZ
1236 XYZ
1237 XYZ
1238 XYZ
1239 XYZ
1240 XYZ
1241 XYZ
1242 XYZ
1243 XYZ
1244 XYZ
1245 XYZ
1246 XYZ
1247 XYZ
1248 XYZ
1249 XYZ
1250 XYZ
1251 XYZ
1252 XYZ
1253 XYZ
1254 XYZ
1255 XYZ
1256 XYZ
1257 XYZ
1258 XYZ
1259 XYZ
1260 XYZ
1261 XYZ
1262 XYZ
1263 XYZ
1264 XYZ
1265 XYZ
1266 XYZ
1267 XYZ
1268 XYZ
1269 XYZ
1270 XYZ
1271 XYZ
1272 XYZ
1273 XYZ
1274 XYZ
1275 XYZ
1276 XYZ
1277 XYZ
1278 XYZ
1279 XYZ
1280 XYZ
1281 XYZ
1282 XYZ
1283 XYZ
1284 XYZ
1285 XYZ
1286 XYZ
1287 XYZ
1288 XYZ
1289 XYZ
1290 XYZ
1291 XYZ
1292 XYZ
1293 XYZ
1294 XYZ
1295 XYZ
1296 XYZ
1297 XYZ
1298 XYZ
1299 XYZ
1300 XYZ
1301 XYZ
1302 XYZ
1303 XYZ
1304 XYZ
1305 XYZ
1306 XYZ
1307 XYZ
1308 XYZ
1309 XYZ
1310 XYZ
1311 XYZ
1312 XYZ
1313 XYZ
1314 XYZ
1315 XYZ
1316 XYZ
1317 XYZ
1318 XYZ
1319 XYZ
1320 XYZ
1321 XYZ
1322 XYZ
1323 XYZ
1324 XYZ
1325 XYZ
1326 XYZ
1327 XYZ
1328 XYZ
1329 XYZ
1330 XYZ
1331 XYZ
1332 XYZ
1333 XYZ
1334 XYZ
1335 XYZ
1336 XYZ
1337 XYZ
1338 XYZ
1339 XYZ
1340 XYZ
1341 XYZ
1342 XYZ
1343 XYZ
1344 XYZ
1345 XYZ
1346 XYZ
1347 XYZ
1348 XYZ
1349 XYZ
1350 XYZ
1351 XYZ
1352 XYZ
1353 XYZ
1354 XYZ
1355 XYZ
1356 XYZ
1357 XYZ
1358 XYZ
1359 XYZ
1360 XYZ
1361 XYZ
1362 XYZ
1363 XYZ
1364 XYZ
1365 XYZ
1366 XYZ
1367 XYZ
1368 XYZ
1369 XYZ
1370 XYZ
1371 XYZ
1372 XYZ
1373 XYZ
1374 XYZ
1375 XYZ
1376 XYZ
1377 XYZ
1378 XYZ
1379 XYZ
1380 XYZ
1381 XYZ
1382 XYZ
1383 XYZ
1384 XYZ
1385 XYZ
1386 XYZ
1387 XYZ
1388 XYZ
1389 XYZ
1390 XYZ
1391 XYZ
1392 XYZ
1393 XYZ
1394 XYZ
1395 XYZ
1396 XYZ
1397 XYZ
1398 XYZ
1399 XYZ
1400 XYZ
1401 XYZ
1402 XYZ
1403 XYZ
1404 XYZ
1405 XYZ
1406 XYZ
1407 XYZ
1408 XYZ
1409 XYZ
1410 XYZ
1411 XYZ
1412 XYZ
1413 XYZ
1414 XYZ
1415 XYZ
1416 XYZ
1417 XYZ
1418 XYZ
1419 XYZ
1420 XYZ
1421 XYZ
1422 XYZ
1423 XYZ
1424 XYZ
1425 XYZ
1426 XYZ
1427 XYZ
1428 XYZ
1429 XYZ
1430 XYZ
1431 XYZ
1432 XYZ
1433 XYZ
1434 XYZ
1435 XYZ
1436 XYZ
1437 XYZ
1438 XYZ
1439 XYZ
1440 XYZ
1441 XYZ
endfixed
$end

$molecule
0 1
C       1.0539332649     0.3857924098     0.6410117433 0  9  3  7  8
H       -0.6526327452     1.3257297548     -0.3259427284 0  3  0  0  0
C       -0.0457092557     0.4077415653     -0.3966586071 0  1  2  4  6
H       0.3709723856     0.3525059722     -1.4088075379 0  3  0  0  0
H       -1.2284346868     -0.8107962378     0.6254804896 0  6  0  0  0
O       -0.9147604269     -0.7236082730     -0.2844300181 0  3  5  0  0
H       0.6462007899     0.4217151338     1.6641351105 0  1  0  0  0
H       1.6747559950     -0.5155799445     0.5336172177 0  1  0  0  0
H       1.7022859950     1.2621497486     0.5161559564 0  1  0  0  0
H       1.7853150000     0.7441670000     -1.3197430000 0  12  0  0  0
Al       1.7890900000     0.5574850000     -3.7877910000 0  12  13  14  15
O       2.2859650000     1.2328430000     -2.0903680000 0  10  11  16  0
O       0.8606360000     1.7268510000     -4.6352080000 0  17  11  0  0
O       3.2401840000     0.1517940000     -4.6253230000 0  18  11  0  0
O       0.8851950000     -0.8100120000     -3.2438840000 0  11  19  0  0
Si       3.1681450000     2.5351390000     -1.5003760000 0  20  12  21  22
Si       0.7873730000     2.4115350000     -6.1173720000 0  13  62  63  61
Si       4.3931880000     -0.8299420000     -5.1820590000 0  65  14  23  64
Si       0.1732400000     -2.1618240000     -3.7405790000 0  25  66  15  24
O       4.7248820000     2.4843330000     -1.9458480000 0  26  16  0  0
O       2.9849980000     2.4205590000     0.1125040000 0  27  16  0  0
O       2.5219690000     3.9145250000     -2.0374110000 0  28  16  0  0
O       5.2697600000     -1.4607950000     -3.9228290000 0  18  29  0  0
O       1.1422450000     -3.4536230000     -3.3845190000 0  19  30  0  0
O       -1.2434490000     -2.3399470000     -2.9094990000 0  19  31  0  0
Si       6.3312080000     2.1108290000     -1.8336330000 0  33  20  69  70
Si       3.4608500000     2.6324830000     1.6641840000 0  39  36  21  71
Si       2.9406800000     5.3852690000     -2.6744990000 0  73  74  22  72
Si       5.2705330000     -2.6545710000     -2.8200010000 0  34  35  68  23
Si       2.5185230000     -4.2329070000     -2.9551920000 0  35  77  78  24
Si       -2.1020700000     -3.4065880000     -2.0547980000 0  25  58  57  92
O       5.7256470000     -0.5054040000     0.6829960000 0  37  38  0  0
O       6.4958180000     0.5031790000     -1.6532330000 0  26  37  0  0
O       5.9255090000     -2.1010390000     -1.4146390000 0  29  37  0  0
O       3.7365230000     -3.1845180000     -2.5571880000 0  29  30  0  0
O       4.5234380000     1.4747130000     2.0638520000 0  27  38  0  0
Si       6.5862480000     -0.8108720000     -0.6818180000 0  33  34  67  32
Si       5.6026860000     0.2409720000     2.1339360000 0  76  75  36  32
O       2.1029810000     2.5050520000     2.5735850000 0  27  40  0  0
Si       1.6183460000     2.0875650000     4.0844430000 0  81  44  45  39
O       -1.5521560000     -0.8295310000     5.0578840000 0  51  52  0  0
O       -1.1096420000     -3.1433790000     3.7854170000 0  51  55  0  0
O       -3.2896820000     -0.8279880000     3.0208750000 0  52  56  0  0
O       -0.0090590000     2.0330520000     4.0914860000 0  53  40  0  0
O       2.2487600000     0.6205660000     4.4218660000 0  54  40  0  0
O       -2.6104420000     1.4645700000     4.1885830000 0  52  53  0  0
O       0.9383000000     -1.7171040000     4.7113440000 0  51  54  0  0
O       -3.2926080000     -3.3918190000     2.2615780000 0  55  56  0  0
O       -4.6654360000     -1.5698610000     0.8641610000 0  59  56  0  0
O       -0.9579270000     -4.4666860000     1.4859610000 0  60  55  0  0
Si       -0.6068220000     -2.1727410000     4.9896360000 0  41  42  87  47
Si       -2.9007300000     -0.1216440000     4.4418260000 0  41  43  46  88
Si       -1.4709050000     2.5526470000     4.6368320000 0  82  44  46  86
Si       2.1206450000     -0.7505750000     5.3223160000 0  83  45  47  80
Si       -1.9131330000     -4.1285550000     2.7636400000 0  89  50  42  48
Si       -4.1930810000     -2.0221950000     2.3559400000 0  49  90  43  48
O       -3.0867930000     -2.5966150000     -1.0217610000 0  59  31  0  0
O       -1.0766550000     -4.3483090000     -1.1944200000 0  60  31  0  0
Si       -4.6319610000     -2.1820140000     -0.6596960000 0  49  91  57  79
Si       -0.9632310000     -5.3527540000     0.0926840000 0  50  84  85  58
O	  2.283838	  3.182277	 -6.289727	 -1	 17	 93	 0	 0
O	  0.379943	  1.272659	 -7.302672	 -1	 17	 94	 0	 0
O	 -0.467323	  3.482140	 -6.111602	 -1	 17	 95	 0	 0
O	  5.442141	 -0.013674	 -6.070448	 -1	 18	 96	 0	 0
O	  3.806136	 -2.093966	 -6.034159	 -1	 97	 18	 0	 0
O	 -0.276879	 -2.154107	 -5.293150	 -1	 98	 19	 0	 0
O	  8.146380	 -0.975066	 -0.332623	 -1	 99	 37	 0	 0
O	  6.211367	 -3.829992	 -3.345730	 -1	 100	 29	 0	 0
O	  7.064251	  2.536160	 -3.178621	 -1	 26	 112	 0	 0
O	  6.958086	  2.885893	 -0.549539	 -1	 113	 26	 0	 0
O	  4.123521	  4.066970	  1.868326	 -1	 114	 27	 0	 0
O	  3.656932	  5.188357	 -4.080138	 -1	 115	 28	 0	 0
O	  3.891659	  6.216727	 -1.650670	 -1	 116	 28	 0	 0
O	  1.584651	  6.128737	 -2.997423	 -1	 28	 117	 0	 0
O	  7.016638	  0.892110	  2.499892	 -1	 107	 38	 0	 0
O	  5.123076	 -0.825266	  3.215956	 -1	 108	 38	 0	 0
O	  2.990644	 -5.084660	 -4.234864	 -1	 118	 30	 0	 0
O	  2.295558	 -5.210968	 -1.682327	 -1	 30	 119	 0	 0
O	 -5.160348	 -1.061157	 -1.667490	 -1	 59	 487	 0	 0
O	  3.509071	 -1.509475	  5.226800	 -1	 108	 54	 0	 0
O	  2.113767	  3.138656	  5.185190	 -1	 235	 40	 0	 0
O	 -1.442575	  2.661458	  6.241810	 -1	 233	 53	 0	 0
O	  1.763861	 -0.357669	  6.844065	 -1	 54	 232	 0	 0
O	  0.410255	 -6.138490	 -0.021589	 -1	 60	 119	 0	 0
O	 -2.227728	 -6.355661	  0.111041	 -1	 60	 736	 0	 0
O	 -1.803275	  3.961283	  3.966370	 -1	 53	 542	 0	 0
O	 -0.684420	 -2.938135	  6.387747	 -1	 650	 51	 0	 0
O	 -4.091739	 -0.285938	  5.486230	 -1	 651	 52	 0	 0
O	 -2.306979	 -5.488563	  3.495254	 -1	 658	 55	 0	 0
O	 -5.465283	 -2.292613	  3.275974	 -1	 659	 56	 0	 0
O	 -5.551835	 -3.493202	 -0.725186	 -1	 737	 59	 0	 0
O	 -3.007012	 -4.337255	 -2.985773	 -1	 739	 31	 0	 0
Si	  3.574966	  3.466194	 -7.211959	 -23	 130	 61	 1191	 1192
Si	 -0.663579	  0.424751	 -8.208257	 -23	 1201	 131	 62	 1199
Si	 -0.731177	  5.072656	 -6.193458	 -23	 1194	 1195	 1196	 63
Si	  5.861935	  1.362017	 -6.795594	 -23	 1193	 130	 1190	 64
Si	  3.030559	 -2.856171	 -7.227113	 -23	 65	 132	 1197	 1198
Si	 -0.340545	 -2.282554	 -6.900541	 -23	 66	 131	 132	 1200
Si	  9.144215	 -2.077654	  0.281599	 -23	 67	 101	 102	 103
Si	  7.137195	 -5.117451	 -3.035654	 -23	 105	 106	 68	 104
O	  8.379898	 -3.457558	  0.761234	 -1	 99	 109	 0	 0
O	  10.239312	 -2.473405	 -0.845543	 -1	 99	 110	 0	 0
O	  9.869175	 -1.429043	  1.572615	 -1	 99	 111	 0	 0
O	  7.099410	 -5.469989	 -1.451150	 -1	 100	 120	 0	 0
O	  8.676502	 -4.787089	 -3.458427	 -1	 121	 100	 0	 0
O	  6.599804	 -6.394860	 -3.887322	 -1	 122	 100	 0	 0
Si	  8.256993	  1.928191	  2.652859	 -23	 154	 75	 218	 160
Si	  5.037547	 -1.178514	  4.797294	 -22	 168	 171	 76	 80
Si	  7.834966	 -4.494984	  1.878170	 -2	 153	 194	 101	 209
Si	  11.453604	 -3.508798	 -1.160827	 -2	 217	 210	 102	 151
Si	  10.435160	 -0.173326	  2.436361	 -2	 218	 204	 205	 103
Si	  7.155490	  3.289068	 -4.608850	 -23	 274	 286	 69	 1190
Si	  7.526586	  4.024582	  0.454522	 -23	 154	 155	 70	 159
Si	  5.035023	  5.398322	  1.727444	 -23	 161	 159	 158	 71
Si	  4.859518	  5.340546	 -5.153694	 -23	 274	 283	 1191	 72
Si	  4.184503	  7.291347	 -0.466407	 -23	 73	 385	 157	 158
Si	  0.663314	  6.871413	 -4.111875	 -23	 74	 467	 1196	 477
Si	  3.267277	 -5.574981	 -5.756317	 -23	 699	 709	 77	 1197
Si	  1.485073	 -6.522971	 -1.173626	 -22	 84	 78	 183	 716
Si	  6.595424	 -6.379116	 -0.210745	 -2	 153	 141	 145	 104
Si	  10.170044	 -5.411428	 -3.296573	 -2	 105	 146	 150	 151
Si	  5.870115	 -7.037522	 -5.193966	 -2	 106	 699	 693	 694
O	  8.205604	 -10.039517	  0.957718	 -1	 223	 231	 0	 0
O	  9.565242	  0.713527	  8.655409	 -1	 251	 224	 0	 0
O	  13.150954	 -2.696314	  9.575687	 -1	 228	 255	 0	 0
O	  16.496023	  1.797788	  3.512684	 -1	 226	 253	 0	 0
O	  18.843543	 -0.600691	  4.278530	 -1	 227	 254	 0	 0
O	  12.152529	 -8.335477	 -1.830120	 -1	 229	 230	 0	 0
O	  14.718248	 -7.756416	 -1.588715	 -1	 261	 229	 0	 0
O	  4.530002	  2.152897	 -7.303764	 -1	 93	 96	 0	 0
O	 -1.079123	 -0.976087	 -7.505550	 -1	 98	 94	 0	 0
O	  1.528753	 -2.258968	 -7.422198	 -1	 97	 98	 0	 0
O	  4.406413	 -9.169077	  0.416646	 -1	 219	 220	 0	 0
O	  3.506293	 -10.870934	  2.211944	 -1	 635	 220	 0	 0
O	  12.169459	 -7.515823	 -6.073452	 -1	 221	 222	 0	 0
O	  5.839638	 -11.299557	  1.043938	 -1	 220	 223	 0	 0
O	  10.401269	  0.064694	  11.079435	 -1	 225	 224	 0	 0
O	  10.105379	 -1.397247	  13.222314	 -1	 225	 637	 0	 0
O	  18.731044	  1.968592	  4.976662	 -1	 226	 227	 0	 0
O	  12.379560	 -1.548905	  11.857451	 -1	 225	 228	 0	 0
O	  5.021017	 -6.727783	 -0.351297	 -1	 219	 120	 0	 0
O	  7.344481	 -11.387976	 -1.156447	 -1	 223	 728	 0	 0
O	  1.554634	  8.847584	  9.505093	 -1	 493	 240	 0	 0
O	  9.832000	 -8.787874	 -0.714124	 -1	 230	 231	 0	 0
O	  7.438427	 -7.773891	 -0.185710	 -1	 231	 120	 0	 0
O	  10.052312	 -6.827926	 -2.494201	 -1	 121	 230	 0	 0
O	  10.201781	 -9.365587	 -3.280037	 -1	 230	 727	 0	 0
O	  12.828842	 -10.023157	 -5.611038	 -1	 726	 222	 0	 0
O	  13.697509	 -8.089794	 -3.983680	 -1	 229	 222	 0	 0
O	  10.851850	 -5.613242	 -4.754714	 -1	 121	 221	 0	 0
O	  11.120861	 -4.387459	 -2.476617	 -1	 121	 110	 0	 0
O	  9.329353	 -7.814304	  1.702078	 -1	 231	 263	 0	 0
O	  6.828747	 -5.554394	  1.170773	 -1	 109	 120	 0	 0
O	  8.043533	  3.290293	  1.804381	 -1	 113	 107	 0	 0
O	  8.769082	  4.827016	 -0.210447	 -1	 113	 315	 0	 0
O	  0.129260	  1.399015	  7.930661	 -1	 233	 232	 0	 0
O	  5.625410	  7.982836	 -0.763983	 -1	 316	 116	 0	 0
O	  4.192802	  6.567154	  0.985076	 -1	 114	 116	 0	 0
O	  6.358246	  5.089675	  0.832345	 -1	 113	 114	 0	 0
O	  8.436608	  2.323270	  4.221598	 -1	 107	 237	 0	 0
O	  5.440680	  5.914817	  3.212328	 -1	 114	 236	 0	 0
O	  2.035144	  5.079630	  6.946762	 -1	 234	 235	 0	 0
O	  4.023879	  4.978284	  5.247834	 -1	 235	 236	 0	 0
O	  6.394396	  3.934369	  4.706173	 -1	 236	 237	 0	 0
O	  7.091802	  2.102827	  6.507200	 -1	 237	 238	 0	 0
O	  5.220451	  1.071769	  8.078364	 -1	 238	 239	 0	 0
O	  3.868608	  3.152617	  7.173305	 -1	 235	 239	 0	 0
O	  5.610667	  0.093592	  5.634087	 -1	 108	 238	 0	 0
O	 -0.128232	  4.041740	  8.105743	 -1	 233	 234	 0	 0
O	  2.658347	  1.315146	  8.721153	 -1	 239	 232	 0	 0
O	  5.888843	 -2.522707	  5.116771	 -1	 108	 246	 0	 0
O	  7.387870	 -0.331797	  7.561131	 -1	 251	 238	 0	 0
O	  0.770892	  6.390045	  8.861775	 -1	 234	 240	 0	 0
O	  4.385495	  2.940912	  9.778127	 -1	 245	 239	 0	 0
O	  6.202029	  6.426953	  5.657263	 -1	 242	 236	 0	 0
O	  8.660849	  4.176936	  6.095370	 -1	 243	 237	 0	 0
O	  3.346598	  6.987858	  8.982141	 -1	 241	 240	 0	 0
O	  5.758535	  7.501972	  8.052530	 -1	 241	 242	 0	 0
O	  8.096766	  6.371055	  7.523288	 -1	 242	 243	 0	 0
O	  8.515247	  4.043357	  8.729329	 -1	 243	 244	 0	 0
O	  6.828606	  3.443176	  10.687151	 -1	 244	 245	 0	 0
O	  5.398769	  5.397759	  9.615771	 -1	 241	 245	 0	 0
O	  2.518281	 -7.575503	 -0.492889	 -1	 219	 119	 0	 0
O	  9.247932	  2.403827	  10.683313	 -1	 244	 224	 0	 0
O	  7.404234	 -4.645518	  5.483648	 -1	 246	 247	 0	 0
O	  6.696896	 -6.157977	  7.520054	 -1	 662	 247	 0	 0
O	  15.356848	 -2.768732	 -0.696092	 -1	 249	 248	 0	 0
O	  9.094042	 -6.441261	  6.458389	 -1	 250	 247	 0	 0
O	  9.052110	 -1.874875	  8.896368	 -1	 251	 252	 0	 0
O	  8.449707	 -3.888622	  10.449530	 -1	 252	 664	 0	 0
O	  17.054475	 -0.498335	  2.281702	 -1	 253	 254	 0	 0
O	  10.787459	 -3.872588	  9.202722	 -1	 252	 255	 0	 0
O	  8.548647	 -4.233881	  7.821331	 -1	 252	 247	 0	 0
O	  7.037645	 -3.704994	  3.048202	 -1	 109	 246	 0	 0
O	  8.494458	 -2.299218	  4.761704	 -1	 259	 246	 0	 0
O	  9.818182	 -0.841960	  6.562584	 -1	 251	 259	 0	 0
O	  10.109429	 -7.191978	  4.102030	 -1	 250	 263	 0	 0
O	  11.380934	 -5.386248	  5.580486	 -1	 258	 250	 0	 0
O	  12.586486	 -3.667009	  7.222702	 -1	 258	 255	 0	 0
O	 -0.323322	  6.132635	  6.450070	 -1	 234	 548	 0	 0
O	  15.512733	 -3.382323	  3.269140	 -1	 257	 256	 0	 0
O	  13.380079	 -3.906081	  4.722795	 -1	 257	 258	 0	 0
O	  11.038691	 -2.789585	  5.246032	 -1	 258	 259	 0	 0
O	  10.334252	 -0.549586	  4.014104	 -1	 259	 111	 0	 0
O	  11.978520	  0.138542	  2.045376	 -1	 260	 111	 0	 0
O	  13.293994	 -1.973856	  2.919100	 -1	 257	 260	 0	 0
O	  13.456461	 -6.442015	  0.333084	 -1	 261	 262	 0	 0
O	  11.491514	 -6.315520	  2.046034	 -1	 262	 263	 0	 0
O	  9.098667	 -5.282469	  2.549429	 -1	 109	 263	 0	 0
O	  11.646961	 -4.485106	  0.134217	 -1	 110	 262	 0	 0
O	  13.428313	 -4.500296	  2.110957	 -1	 257	 262	 0	 0
O	  18.081220	 -2.805509	  3.064919	 -1	 254	 256	 0	 0
O	  16.884080	 -4.028547	  1.046029	 -1	 249	 256	 0	 0
O	  15.606300	 -5.405870	 -0.849723	 -1	 249	 261	 0	 0
O	  14.552004	  0.349296	  2.533843	 -1	 260	 253	 0	 0
O	  13.707582	 -1.062407	  0.449866	 -1	 260	 248	 0	 0
O	  12.816323	 -2.681257	 -1.471578	 -1	 110	 248	 0	 0
O	  9.602406	  1.185135	  2.130653	 -1	 107	 111	 0	 0
Si	  4.068817	 -8.011707	 -0.662051	 -2	 141	 684	 133	 183
Si	  4.327888	 -10.732419	  0.822373	 -2	 683	 133	 134	 136
Si	  10.963297	 -6.439750	 -6.145182	 -2	 265	 698	 150	 135
Si	  13.333166	 -8.486934	 -5.514461	 -2	 1220	 148	 149	 135
Si	  7.357256	 -11.332473	  0.461866	 -2	 1203	 142	 123	 136
Si	  10.220216	  1.282401	  10.021324	 -2	 137	 124	 1433	 184
Si	  11.182128	 -0.562665	  12.349327	 -2	 137	 138	 140	 1208
Si	  17.396754	  2.745023	  4.458970	 -2	 139	 267	 126	 1432
Si	  19.674924	  0.642041	  4.911724	 -2	 139	 1221	 1207	 127
Si	  13.657734	 -2.000262	  10.947574	 -2	 1205	 140	 125	 1206
Si	  13.636166	 -8.613124	 -2.442409	 -2	 129	 1212	 149	 128
Si	  10.555577	 -8.322936	 -2.087353	 -2	 146	 147	 128	 144
Si	  8.700606	 -8.589704	  0.430820	 -2	 145	 152	 123	 144
Si	  1.400446	  0.434657	  8.209968	 -23	 170	 83	 156	 583
Si	 -0.884412	  2.646159	  7.769896	 -23	 169	 82	 156	 584
Si	  0.582801	  5.406198	  7.588808	 -2	 169	 162	 173	 200
Si	  3.019775	  4.082096	  6.141808	 -23	 81	 162	 163	 167
Si	  5.522273	  5.311582	  4.716472	 -2	 161	 163	 164	 175
Si	  7.643402	  3.134849	  5.381584	 -2	 176	 164	 165	 160
Si	  6.332722	  0.736056	  6.941557	 -2	 172	 165	 166	 168
Si	  4.030713	  2.123651	  8.428391	 -2	 170	 174	 167	 166
Si	  1.892051	  7.261244	  9.649144	 -2	 177	 1421	 173	 143
Si	  4.932018	  6.930206	  9.320454	 -2	 177	 178	 1213	 182
Si	  6.864244	  7.229608	  6.892107	 -2	 178	 179	 1430	 175
Si	  8.949539	  4.981170	  7.478827	 -2	 1211	 179	 180	 176
Si	  8.383486	  3.731118	  10.315759	 -2	 180	 181	 1214	 184
Si	  5.323430	  4.035062	  10.514097	 -2	 181	 174	 1215	 182
Si	  7.221757	 -3.292484	  4.611850	 -2	 185	 194	 171	 195
Si	  7.930940	 -5.364402	  6.834179	 -2	 185	 186	 188	 193
Si	  14.073741	 -1.809995	 -0.936821	 -2	 217	 187	 303	 216
Si	  16.358109	 -4.018355	 -0.487215	 -2	 1238	 187	 213	 214
Si	  10.456673	 -6.715211	  5.613779	 -2	 1217	 188	 197	 198
Si	  8.953519	 -0.586951	  7.915026	 -2	 124	 172	 189	 196
Si	  9.214338	 -3.471505	  9.088291	 -2	 193	 189	 190	 192
Si	  16.087506	  0.813645	  2.301689	 -2	 305	 191	 126	 215
Si	  18.393745	 -1.227679	  2.853051	 -2	 127	 212	 1239	 191
Si	  12.371878	 -3.890107	  8.815469	 -2	 1219	 125	 199	 192
Si	  16.930325	 -3.879430	  2.663232	 -2	 201	 212	 213	 1209
Si	  13.894944	 -3.445973	  3.256093	 -2	 201	 202	 211	 206
Si	  12.086080	 -3.930824	  5.703728	 -2	 202	 203	 198	 199
Si	  9.919401	 -1.625772	  5.148401	 -2	 203	 195	 204	 196
Si	  13.395543	 -0.643623	  1.984042	 -2	 205	 206	 215	 216
Si	  14.905756	 -6.771187	 -0.319589	 -2	 129	 1210	 214	 207
Si	  12.502269	 -5.423309	  1.149622	 -2	 210	 211	 207	 208
Si	  9.992898	 -6.638146	  2.581525	 -2	 209	 208	 197	 152
O	  12.155533	 -3.694187	 -9.149055	 -1	 310	 311	 0	 0
O	  11.255414	 -5.396044	 -7.353757	 -1	 221	 311	 0	 0
O	  18.149941	  5.538989	  1.513068	 -1	 313	 312	 0	 0
O	  17.854050	  4.077048	  3.655946	 -1	 313	 226	 0	 0
O	  20.128681	  3.925984	  2.291750	 -1	 313	 314	 0	 0
O	  2.588323	  4.413137	 -11.233858	 -1	 325	 1078	 0	 0
O	  9.303754	  14.322473	 -0.060608	 -1	 329	 1082	 0	 0
O	  17.313914	  6.187821	 -0.910959	 -1	 335	 312	 0	 0
O	  20.900074	  2.778576	  0.009985	 -1	 337	 314	 0	 0
O	  7.878380	  6.873905	 -1.635040	 -1	 315	 316	 0	 0
O	  6.195740	  4.608255	 -4.582161	 -1	 115	 112	 0	 0
O	  7.753964	  7.528997	 -5.523484	 -1	 317	 318	 0	 0
O	  11.257742	  3.964819	 -4.339568	 -1	 319	 320	 0	 0
O	  9.952094	  6.084868	 -5.172721	 -1	 318	 320	 0	 0
O	  9.783815	  10.553924	 -2.619605	 -1	 321	 322	 0	 0
O	  12.969813	  6.545359	 -1.487841	 -1	 323	 324	 0	 0
O	  11.617279	  8.626911	 -2.393063	 -1	 322	 324	 0	 0
O	  9.863129	  8.612246	 -4.381015	 -1	 322	 318	 0	 0
O	  13.359788	  5.568482	 -3.931615	 -1	 323	 319	 0	 0
O	  5.198655	  6.913750	 -5.406409	 -1	 115	 317	 0	 0
O	  6.306546	  8.136348	 -3.323892	 -1	 316	 317	 0	 0
O	  7.620439	  9.516035	 -1.460625	 -1	 321	 316	 0	 0
O	  8.689111	  3.759533	 -4.855703	 -1	 320	 112	 0	 0
O	  9.512982	  5.117221	 -2.721636	 -1	 315	 320	 0	 0
O	  10.407019	  6.789440	 -0.845214	 -1	 315	 324	 0	 0
O	  13.637964	  2.952183	 -4.448930	 -1	 333	 319	 0	 0
O	  15.136541	  5.142498	 -2.005237	 -1	 323	 335	 0	 0
O	  8.519564	  11.864340	 -0.704592	 -1	 321	 329	 0	 0
O	  12.134615	  8.415802	  0.212426	 -1	 332	 324	 0	 0
O	  4.690741	  2.948996	 -10.637037	 -1	 325	 326	 0	 0
O	  8.158926	 -0.664195	 -9.587956	 -1	 327	 328	 0	 0
O	  6.661730	  1.168809	 -10.721453	 -1	 326	 328	 0	 0
O	  11.096409	  12.462043	 -0.583398	 -1	 329	 330	 0	 0
O	  14.577277	  8.917471	  1.120784	 -1	 331	 332	 0	 0
O	  13.147440	  10.872053	  0.049403	 -1	 330	 332	 0	 0
O	  5.521392	 -0.880771	 -9.454660	 -1	 813	 328	 0	 0
O	  10.267402	 -2.100613	 -10.058591	 -1	 310	 327	 0	 0
O	  16.997053	  7.878717	  1.117612	 -1	 331	 312	 0	 0
O	  15.152905	  0.828777	 -4.082720	 -1	 333	 334	 0	 0
O	  14.445567	 -0.683682	 -2.046313	 -1	 334	 248	 0	 0
O	  16.801231	  3.600015	 -0.669334	 -1	 335	 336	 0	 0
O	  16.198379	  1.585672	  0.883162	 -1	 253	 336	 0	 0
O	  18.536130	  1.601706	 -0.363645	 -1	 337	 336	 0	 0
O	  16.297318	  1.240413	 -1.745037	 -1	 334	 336	 0	 0
O	  5.945846	  9.436173	 -5.599331	 -1	 1108	 317	 0	 0
O	  7.425349	  11.606930	 -3.116298	 -1	 321	 1112	 0	 0
Si	  11.817937	 -2.536818	 -10.227753	 -2	 1224	 300	 1310	 264
Si	  12.077009	 -5.257529	 -8.743328	 -2	 265	 1428	 264	 792
Si	  17.968887	  6.756696	  0.454957	 -2	 1225	 266	 301	 271
Si	  18.930233	  4.911243	  2.783688	 -2	 266	 267	 268	 1223
Si	  21.406406	  3.474033	  1.381206	 -2	 1226	 268	 1222	 272
Si	  9.149567	  5.909547	 -1.355733	 -2	 273	 155	 287	 288
Si	  6.864709	  8.121048	 -1.795805	 -2	 273	 284	 157	 285
Si	  6.317303	  7.996572	 -4.939876	 -2	 275	 308	 283	 284
Si	  9.375479	  7.562351	 -5.509915	 -2	 281	 1227	 275	 277
Si	  12.786218	  4.295781	 -4.769074	 -2	 289	 282	 276	 1228
Si	  9.836256	  4.737158	 -4.264947	 -2	 276	 277	 286	 287
Si	  8.332163	  10.879788	 -1.977397	 -2	 291	 285	 278	 309
Si	  10.768896	  9.556986	 -3.423894	 -2	 281	 1229	 278	 280
Si	  14.081393	  6.210350	 -2.624810	 -2	 290	 1230	 279	 282
Si	  11.779834	  7.598541	 -1.137310	 -2	 292	 280	 279	 288
Si	  3.157853	  3.278808	 -10.216691	 -2	 804	 269	 293	 1192
Si	  5.667190	  2.088809	 -11.611632	 -2	 802	 293	 1231	 295
Si	  9.234194	 -1.048081	 -10.739327	 -2	 803	 300	 294	 1232
Si	  6.766587	  0.154282	 -9.449627	 -2	 1193	 299	 294	 295
Si	  9.640156	  12.735151	  0.083504	 -2	 1434	 291	 270	 296
Si	  12.680689	  12.404500	 -0.245914	 -2	 1233	 298	 1235	 296
Si	  16.132157	  9.205412	  0.749391	 -2	 297	 1234	 1236	 301
Si	  13.072550	  9.509952	  0.948396	 -2	 297	 298	 292	 1237
Si	  14.970428	  2.181811	 -4.954517	 -2	 289	 1242	 302	 1241
Si	  15.679611	  0.109892	 -2.732188	 -2	 307	 302	 303	 1427
Si	  16.702191	  4.887343	 -1.651341	 -2	 290	 1243	 271	 304
Si	  16.964149	  2.002680	 -0.477248	 -2	 305	 306	 307	 304
Si	  20.120550	  1.584188	 -0.750898	 -2	 306	 1244	 272	 1240
O	 -9.871770	  4.567866	 -3.288668	 -1	 483	 484	 0	 0
O	 -10.771890	  2.866009	 -1.493370	 -1	 484	 975	 0	 0
O	 -2.109290	  6.220733	 -9.778039	 -1	 485	 486	 0	 0
O	 -7.344553	 -0.031336	 -0.533566	 -1	 487	 976	 0	 0
O	 -6.173060	  1.092642	 -2.651929	 -1	 487	 488	 0	 0
O	 -8.438544	  2.437386	 -2.661377	 -1	 484	 488	 0	 0
O	 -3.876913	  13.801637	  7.374121	 -1	 489	 490	 0	 0
O	 -4.173369	  12.339309	  9.517727	 -1	 977	 490	 0	 0
O	  4.452296	  15.705147	  1.272075	 -1	 491	 492	 0	 0
O	 -1.063330	  9.202490	  9.835353	 -1	 978	 493	 0	 0
O	  0.280336	  10.689939	  8.104754	 -1	 493	 494	 0	 0
O	 -1.898864	  12.189337	  8.152641	 -1	 490	 494	 0	 0
O	 -9.257731	  7.008773	 -4.055883	 -1	 497	 483	 0	 0
O	 -6.072579	  3.697426	 -2.747597	 -1	 496	 488	 0	 0
O	 -6.933702	  2.348967	 -4.861761	 -1	 878	 488	 0	 0
O	 -4.713631	  14.451174	  4.949932	 -1	 489	 544	 0	 0
O	 -1.128486	  11.040946	  5.870937	 -1	 549	 494	 0	 0
O	  2.217841	  15.534730	 -0.192630	 -1	 546	 491	 0	 0
O	  4.565810	  13.136847	  0.573882	 -1	 547	 492	 0	 0
O	 -4.446874	  4.949773	 -4.419601	 -1	 495	 496	 0	 0
O	 -6.840322	  5.962665	 -3.890297	 -1	 497	 496	 0	 0
O	 -7.178773	  8.266954	 -5.156464	 -1	 497	 498	 0	 0
O	 -5.602247	  8.949467	 -7.163013	 -1	 498	 499	 0	 0
O	 -4.225871	  6.909016	 -6.199515	 -1	 499	 495	 0	 0
O	 -4.076642	  4.372655	 -6.984848	 -1	 877	 495	 0	 0
O	 -7.678945	  7.341696	 -7.591909	 -1	 498	 880	 0	 0
O	 -1.449907	  3.713399	 -9.315625	 -1	 876	 486	 0	 0
O	 -3.426898	  8.123314	 -8.459300	 -1	 499	 485	 0	 0
O	 -8.067382	  9.906564	 -7.050317	 -1	 498	 522	 0	 0
O	 -3.157321	  9.349484	 -6.181931	 -1	 499	 560	 0	 0
O	 -4.948830	  5.922639	 -2.003236	 -1	 557	 496	 0	 0
O	 -7.450001	  8.182162	 -2.533814	 -1	 497	 558	 0	 0
O	 -6.234649	  17.027236	 -1.900933	 -1	 500	 501	 0	 0
O	 -5.509667	  18.563571	 -3.915034	 -1	 1084	 501	 0	 0
O	 -14.148923	  15.135958	  4.225347	 -1	 502	 503	 0	 0
O	 -7.919936	  18.826618	 -2.872969	 -1	 501	 504	 0	 0
O	 -7.850166	  14.269281	 -5.340817	 -1	 505	 506	 0	 0
O	 -7.214498	  16.272716	 -6.883207	 -1	 506	 1086	 0	 0
O	 -15.831563	  12.870309	  1.278226	 -1	 507	 508	 0	 0
O	 -9.548819	  16.322854	 -5.628757	 -1	 506	 509	 0	 0
O	 -7.320662	  16.622448	 -4.254126	 -1	 506	 501	 0	 0
O	 -5.841575	  16.060212	  0.516284	 -1	 500	 519	 0	 0
O	 -7.261545	  14.629053	 -1.205422	 -1	 513	 500	 0	 0
O	 -8.621450	  13.233773	 -3.020712	 -1	 505	 513	 0	 0
O	 -8.837502	  19.651760	 -0.492986	 -1	 518	 504	 0	 0
O	 -10.155228	  17.803526	 -1.836260	 -1	 512	 504	 0	 0
O	 -11.322104	  16.173799	 -3.605511	 -1	 509	 512	 0	 0
O	  3.018596	  8.417214	 -0.395136	 -1	 116	 550	 0	 0
O	 -8.444050	  11.687756	 -5.120541	 -1	 505	 522	 0	 0
O	 -11.913134	  15.054806	 -5.854688	 -1	 561	 509	 0	 0
O	 -15.291835	  10.566171	  0.049026	 -1	 507	 524	 0	 0
O	 -17.618765	  12.979798	 -0.720227	 -1	 508	 525	 0	 0
O	 -14.273456	  15.791258	  0.338297	 -1	 510	 511	 0	 0
O	 -12.160181	  16.259749	 -1.130980	 -1	 511	 512	 0	 0
O	 -9.790290	  15.198669	 -1.664397	 -1	 513	 512	 0	 0
O	 -9.155107	  12.911677	 -0.489358	 -1	 513	 514	 0	 0
O	 -10.769112	  12.227468	  1.521486	 -1	 514	 515	 0	 0
O	 -12.075450	  14.348220	  0.688169	 -1	 515	 511	 0	 0
O	 -12.243604	  18.816186	  3.242176	 -1	 516	 517	 0	 0
O	 -10.254994	  18.715931	  1.542357	 -1	 517	 518	 0	 0
O	 -7.884477	  17.672017	  1.000696	 -1	 518	 519	 0	 0
O	 -7.186380	  15.839769	  2.801886	 -1	 519	 520	 0	 0
O	 -9.058297	  14.808324	  4.373777	 -1	 521	 520	 0	 0
O	 -10.410265	  16.890264	  3.467828	 -1	 521	 517	 0	 0
O	 -12.164982	  16.875211	  1.480603	 -1	 517	 511	 0	 0
O	 -8.667515	  13.830535	  1.928772	 -1	 514	 520	 0	 0
O	 -16.829339	  15.176508	  0.453816	 -1	 508	 510	 0	 0
O	 -15.720757	  16.398401	  2.536495	 -1	 510	 503	 0	 0
O	 -14.406981	  17.778296	  4.401156	 -1	 516	 503	 0	 0
O	 -13.338758	  12.021200	  1.005411	 -1	 515	 507	 0	 0
O	 -12.514321	  13.379274	  3.138751	 -1	 515	 502	 0	 0
O	 -11.620401	  15.051701	  5.016567	 -1	 521	 502	 0	 0
O	 -8.389339	  11.214236	  1.411457	 -1	 538	 514	 0	 0
O	 -6.890313	  13.405146	  3.855816	 -1	 544	 520	 0	 0
O	 -13.507290	  20.126988	  5.156461	 -1	 516	 532	 0	 0
O	 -9.892688	  16.677855	  6.072813	 -1	 521	 537	 0	 0
O	 -8.075703	  20.164491	  1.952615	 -1	 534	 518	 0	 0
O	 -5.617899	  17.913491	  2.390783	 -1	 535	 519	 0	 0
O	 -9.053750	  12.272414	 -7.628004	 -1	 522	 523	 0	 0
O	 -8.836607	  13.722882	 -9.775034	 -1	 523	 1096	 0	 0
O	 -17.497992	  10.415655	 -1.443540	 -1	 524	 525	 0	 0
O	 -11.098535	  13.844807	 -8.357372	 -1	 561	 523	 0	 0
O	 -10.472613	  11.642590	 -9.738746	 -1	 523	 888	 0	 0
O	 -11.288230	  8.652987	 -7.940341	 -1	 529	 887	 0	 0
O	 -10.535955	  10.542193	 -6.225023	 -1	 529	 522	 0	 0
O	 -13.385207	  12.962242	 -6.770581	 -1	 561	 528	 0	 0
O	 -17.336678	  11.211257	 -4.775256	 -1	 526	 527	 0	 0
O	 -15.483721	  11.388358	 -6.628164	 -1	 527	 528	 0	 0
O	 -13.092353	  10.317290	 -6.982548	 -1	 529	 528	 0	 0
O	 -11.983190	  8.525588	 -5.386913	 -1	 529	 530	 0	 0
O	 -13.867928	  7.598453	 -3.726903	 -1	 530	 531	 0	 0
O	 -15.366140	  9.430475	 -4.860338	 -1	 531	 527	 0	 0
O	 -10.931585	  20.724801	  5.276827	 -1	 532	 533	 0	 0
O	 -8.519647	  21.238915	  4.347216	 -1	 533	 534	 0	 0
O	 -6.181417	  20.107998	  3.817973	 -1	 534	 535	 0	 0
O	 -5.763502	  17.779913	  5.024742	 -1	 535	 536	 0	 0
O	 -7.450142	  17.179732	  6.982565	 -1	 537	 536	 0	 0
O	 -8.879414	  19.134702	  5.910456	 -1	 537	 533	 0	 0
O	 -18.881334	  12.166261	 -2.857968	 -1	 525	 526	 0	 0
O	 -15.229220	  9.274202	 -2.215176	 -1	 531	 524	 0	 0
O	 -16.506477	  7.380895	 -3.593546	 -1	 889	 531	 0	 0
O	 -11.760467	  6.161053	 -4.197476	 -1	 530	 483	 0	 0
O	 -5.031507	  16.141087	  6.978564	 -1	 489	 536	 0	 0
O	 -6.874515	  9.091038	  1.779061	 -1	 538	 539	 0	 0
O	 -7.581852	  7.578579	  3.815468	 -1	 1001	 539	 0	 0
O	  1.078100	  10.967824	 -4.400679	 -1	 540	 541	 0	 0
O	 -4.405029	  4.367892	  4.365602	 -1	 1002	 542	 0	 0
O	 -3.010155	  5.807225	  2.614888	 -1	 542	 543	 0	 0
O	 -5.184706	  7.295295	  2.753802	 -1	 539	 543	 0	 0
O	 -5.226072	  11.862068	  5.191053	 -1	 545	 544	 0	 0
O	 -5.829041	  9.847933	  6.744943	 -1	 545	 1003	 0	 0
O	  2.775727	  13.238221	 -1.422885	 -1	 546	 547	 0	 0
O	 -2.426571	  7.235515	  7.648736	 -1	 548	 1004	 0	 0
O	 -1.290677	  8.407924	  5.553181	 -1	 548	 549	 0	 0
O	 -3.490723	  9.864355	  5.497408	 -1	 545	 549	 0	 0
O	 -5.729536	  9.503061	  4.116016	 -1	 545	 539	 0	 0
O	 -2.683980	  6.161771	  5.242069	 -1	 548	 542	 0	 0
O	 -7.240537	  10.031949	 -0.657112	 -1	 538	 558	 0	 0
O	 -5.784532	  11.438637	  1.057621	 -1	 553	 538	 0	 0
O	 -4.460567	  12.894596	  2.857998	 -1	 553	 544	 0	 0
O	 -4.169320	  6.544578	  0.397444	 -1	 557	 543	 0	 0
O	 -2.897939	  8.351399	  1.875009	 -1	 543	 552	 0	 0
O	 -1.691697	  10.069934	  3.517387	 -1	 549	 552	 0	 0
O	  1.233985	  10.354233	 -0.435447	 -1	 550	 551	 0	 0
O	 -0.898104	  9.830862	  1.017481	 -1	 551	 552	 0	 0
O	 -3.240058	  10.946971	  1.541445	 -1	 553	 552	 0	 0
O	 -3.944497	  13.186970	  0.309518	 -1	 553	 554	 0	 0
O	 -2.300228	  13.875098	 -1.659210	 -1	 554	 555	 0	 0
O	 -0.984754	  11.762700	 -0.785487	 -1	 555	 551	 0	 0
O	 -0.822288	  7.294541	 -3.371503	 -1	 556	 117	 0	 0
O	 -2.787925	  7.421741	 -1.658715	 -1	 556	 557	 0	 0
O	 -5.180082	  8.454086	 -1.155158	 -1	 557	 558	 0	 0
O	 -5.899541	  10.279702	 -2.943515	 -1	 558	 559	 0	 0
O	 -4.039436	  11.263150	 -4.550130	 -1	 559	 560	 0	 0
O	 -2.631221	  9.251837	 -3.571097	 -1	 556	 560	 0	 0
O	 -0.849869	  9.236646	 -1.594357	 -1	 556	 551	 0	 0
O	 -4.409008	  12.307900	 -2.132699	 -1	 554	 559	 0	 0
O	  3.802471	  10.931047	 -0.639667	 -1	 547	 550	 0	 0
O	  2.605898	  9.708396	 -2.659285	 -1	 541	 550	 0	 0
O	  1.327551	  8.330685	 -4.554309	 -1	 117	 541	 0	 0
O	  0.273255	  14.085852	 -1.170743	 -1	 546	 555	 0	 0
O	 -0.570600	  12.674536	 -3.255448	 -1	 555	 540	 0	 0
O	 -1.462426	  11.055299	 -5.176165	 -1	 540	 560	 0	 0
O	 -4.676343	  14.921691	 -1.573933	 -1	 554	 500	 0	 0
O	 -6.210942	  12.676921	 -4.051258	 -1	 505	 559	 0	 0
Si	 -10.209366	  5.725236	 -4.367366	 -2	 338	 827	 350	 439
Si	 -9.950861	  3.004137	 -2.882214	 -2	 825	 338	 339	 343
Si	 -3.314886	  7.297193	 -9.850496	 -2	 1019	 340	 365	 840
Si	 -0.945583	  5.249622	 -9.219047	 -2	 1195	 340	 364	 1020
Si	 -6.575391	 -0.307796	 -1.935984	 -23	 826	 341	 342	 79
Si	 -6.920927	  2.404470	 -3.243449	 -2	 351	 342	 343	 352
Si	 -4.057966	  15.019344	  6.316010	 -2	 353	 440	 1435	 344
Si	 -3.097311	  13.174596	  8.644578	 -2	 345	 1245	 349	 344
Si	  3.118571	  16.481965	  0.753656	 -2	 346	 355	 1431	 1024
Si	  5.395485	  14.379301	  1.206975	 -2	 1025	 346	 356	 1250
Si	  0.353656	  9.937506	  9.545074	 -2	 347	 348	 1246	 143
Si	 -0.621014	  11.736294	  7.242987	 -2	 354	 348	 349	 1247
Si	 -3.723172	  5.413620	 -5.791940	 -2	 361	 1194	 357	 362
Si	 -5.577576	  5.147239	 -3.274495	 -2	 357	 358	 351	 368
Si	 -7.682758	  7.357827	 -3.916059	 -2	 369	 358	 350	 359
Si	 -7.141678	  8.620196	 -6.741131	 -2	 363	 366	 359	 360
Si	 -4.108138	  8.325515	 -7.001888	 -2	 361	 365	 367	 360
Si	 -6.021189	  15.665134	 -1.052455	 -2	 481	 370	 379	 380
Si	 -6.751713	  17.761733	 -3.249399	 -2	 370	 371	 373	 378
Si	 -12.877736	  14.171600	  4.504654	 -2	 409	 372	 921	 408
Si	 -15.163285	  16.383806	  4.064419	 -2	 372	 405	 406	 1341
Si	 -9.243400	  19.136564	 -1.977367	 -2	 1252	 373	 382	 383
Si	 -7.778526	  12.964951	 -4.383672	 -2	 482	 386	 381	 374
Si	 -7.994086	  15.869796	 -5.526050	 -2	 377	 378	 374	 375
Si	 -14.871364	  11.551716	  1.252203	 -2	 388	 924	 407	 376
Si	 -17.167336	  13.603194	  0.707359	 -2	 404	 389	 1343	 376
Si	 -11.130488	  16.293534	 -5.228556	 -2	 377	 387	 1254	 384
Si	 -15.710000	  16.258625	  0.920511	 -2	 404	 405	 390	 1261
Si	 -12.651375	  15.824999	  0.351138	 -2	 402	 395	 390	 391
Si	 -10.839923	  16.357505	 -2.073254	 -2	 392	 383	 391	 384
Si	 -8.704281	  14.002175	 -1.597675	 -2	 393	 380	 381	 392
Si	 -9.241893	  12.558746	  1.092545	 -2	 393	 394	 403	 410
Si	 -12.191047	  12.999211	  1.595440	 -2	 394	 395	 407	 408
Si	 -13.695382	  19.143141	  3.883494	 -2	 1262	 412	 396	 406
Si	 -11.258407	  17.819039	  2.436493	 -2	 401	 402	 396	 397
Si	 -8.756476	  19.048138	  1.011886	 -2	 397	 382	 398	 414
Si	 -6.634781	  16.871792	  1.676269	 -2	 379	 399	 398	 415
Si	 -7.945461	  14.472999	  3.236243	 -2	 400	 403	 399	 411
Si	 -10.247469	  15.860594	  4.723077	 -2	 409	 413	 401	 400
Si	 -9.036957	  11.101622	 -6.517437	 -2	 386	 366	 422	 416
Si	 -9.916291	  12.906943	 -8.864182	 -2	 417	 419	 420	 416
Si	 -16.165369	  9.624070	 -0.935207	 -2	 418	 388	 437	 942
Si	 -18.452337	  11.728247	 -1.351572	 -2	 418	 436	 389	 1349
Si	 -18.869567	  11.541069	 -4.354910	 -2	 865	 1248	 436	 424
Si	 -16.360679	  10.350476	 -5.750517	 -2	 425	 429	 863	 424
Si	 -14.026001	  11.601715	 -7.340171	 -2	 425	 426	 423	 856
Si	 -11.727154	  9.521027	 -6.645112	 -2	 426	 427	 421	 422
Si	 -12.793109	  7.213972	 -4.878940	 -2	 427	 428	 439	 864
Si	 -15.261408	  8.417040	 -3.589403	 -2	 437	 428	 429	 438
Si	 -12.387389	  20.998504	  5.944394	 -2	 1249	 412	 430	 1423
Si	 -9.346164	  20.667149	  5.615140	 -2	 1258	 435	 430	 431
Si	 -7.414179	  20.967851	  3.187296	 -2	 1441	 414	 431	 432
Si	 -5.329210	  18.717726	  3.774240	 -2	 433	 1257	 415	 432
Si	 -5.895262	  17.467674	  6.611172	 -2	 433	 434	 1259	 440
Si	 -8.955319	  17.771618	  6.809511	 -2	 434	 435	 1260	 413
Si	 -7.056991	  10.444072	  0.907264	 -2	 441	 410	 455	 456
Si	 -6.347808	  8.372153	  3.129593	 -2	 441	 442	 453	 446
Si	 -0.204441	  11.926948	 -4.642135	 -2	 1065	 443	 479	 480
Si	  2.079360	  9.718200	 -4.191802	 -2	 1066	 443	 476	 477
Si	 -2.979146	  5.079966	  4.067291	 -23	 86	 444	 445	 454
Si	 -3.822766	  7.022049	  1.909030	 -2	 458	 459	 445	 446
Si	 -5.325229	  13.149605	  4.210440	 -2	 457	 411	 353	 447
Si	 -5.064411	  10.265051	  5.383704	 -2	 452	 453	 447	 448
Si	  1.809324	  14.550588	 -1.403626	 -2	 449	 355	 1070	 478
Si	  4.114996	  12.508877	 -0.851536	 -2	 449	 475	 356	 1071
Si	 -1.686144	  6.983606	  6.228782	 -2	 450	 451	 454	 200
Si	 -1.906304	  9.846836	  5.110155	 -2	 354	 451	 452	 460
Si	  2.652143	  9.857513	 -1.042083	 -2	 385	 475	 476	 461
Si	 -0.383804	  10.290582	 -0.448494	 -2	 473	 466	 461	 462
Si	 -2.192669	  9.805732	  1.999142	 -2	 459	 460	 462	 463
Si	 -4.358781	  12.111171	  1.443086	 -2	 457	 464	 463	 456
Si	 -3.843588	  13.563230	 -1.268226	 -2	 481	 474	 465	 464
Si	 -0.882639	  13.093320	 -1.721272	 -2	 465	 466	 478	 479
Si	 -1.775463	  8.314229	 -2.555027	 -2	 473	 467	 468	 472
Si	 -4.285851	  7.098410	 -1.123061	 -2	 458	 468	 469	 368
Si	 -6.443782	  9.241572	 -1.826417	 -2	 369	 469	 470	 455
Si	 -5.143086	  11.636659	 -3.415366	 -2	 474	 482	 470	 471
Si	 -2.824578	  10.228145	 -4.866141	 -2	 480	 471	 367	 472
Si	 -12.437049	  14.332846	 -7.370485	 -2	 419	 387	 423	 1256
O	  4.420788	 -12.990118	  3.492915	 -1	 635	 636	 0	 0
O	  10.982373	 -3.505703	  14.543029	 -1	 637	 638	 0	 0
O	  8.746903	 -3.677102	  13.078385	 -1	 637	 664	 0	 0
O	  11.094872	 -6.074985	  13.844898	 -1	 665	 638	 0	 0
O	  4.403409	 -13.810366	  7.735581	 -1	 639	 640	 0	 0
O	  2.082879	 -14.262764	  8.851578	 -1	 641	 640	 0	 0
O	 -0.310694	 -13.248781	  9.379991	 -1	 641	 642	 0	 0
O	 -0.649711	 -10.944879	  8.114551	 -1	 642	 643	 0	 0
O	  0.927831	 -10.261383	  6.107941	 -1	 643	 644	 0	 0
O	  2.303191	 -12.302816	  7.071501	 -1	 644	 640	 0	 0
O	  2.452986	 -14.838790	  6.285440	 -1	 775	 640	 0	 0
O	 -1.148868	 -11.869155	  5.679045	 -1	 778	 643	 0	 0
O	  5.080171	 -15.497451	  3.955329	 -1	 636	 774	 0	 0
O	  5.948388	 -13.564683	  5.582021	 -1	 636	 639	 0	 0
O	  3.103179	 -11.087536	  4.811654	 -1	 635	 644	 0	 0
O	 -1.537754	 -9.304881	  6.219971	 -1	 657	 643	 0	 0
O	  6.969577	 -13.230710	  7.977653	 -1	 639	 672	 0	 0
O	  3.372756	 -9.861366	  7.089023	 -1	 644	 677	 0	 0
O	  1.580232	 -13.289193	  11.267779	 -1	 641	 674	 0	 0
O	 -0.919924	 -11.028688	  10.737140	 -1	 642	 675	 0	 0
O	  0.294862	 -2.184002	  11.370749	 -1	 645	 646	 0	 0
O	  1.019961	 -0.647874	  9.355254	 -1	 646	 232	 0	 0
O	 -2.123261	  2.508541	  8.802385	 -1	 233	 647	 0	 0
O	 -3.555869	  1.092859	  10.551444	 -1	 647	 648	 0	 0
O	 -1.390425	 -0.384619	  10.398713	 -1	 646	 648	 0	 0
O	 -1.320089	 -4.941570	  7.930137	 -1	 649	 650	 0	 0
O	 -5.248017	 -1.493199	  7.566625	 -1	 651	 652	 0	 0
O	 -3.018742	 -2.887996	  7.642198	 -1	 650	 652	 0	 0
O	 -0.791035	 -2.588997	  9.016162	 -1	 650	 646	 0	 0
O	 -3.857461	  0.741838	  7.915031	 -1	 651	 647	 0	 0
O	  0.687487	 -3.151620	  13.787300	 -1	 645	 656	 0	 0
O	 -0.732033	 -4.582184	  12.066260	 -1	 645	 654	 0	 0
O	 -2.092388	 -5.978059	  10.250304	 -1	 649	 654	 0	 0
O	 -2.307875	  0.440315	  12.777301	 -1	 655	 648	 0	 0
O	 -3.625150	 -1.407324	  11.434694	 -1	 653	 648	 0	 0
O	 -4.792027	 -3.037052	  9.665443	 -1	 652	 653	 0	 0
O	 -1.914423	 -7.523689	  8.149747	 -1	 649	 657	 0	 0
O	 -5.383507	 -4.156640	  7.415600	 -1	 652	 678	 0	 0
O	 -3.260779	 -4.012568	  11.607285	 -1	 653	 654	 0	 0
O	 -1.354966	 -1.539221	  14.272377	 -1	 655	 656	 0	 0
O	 -2.524689	 -6.939419	  5.643012	 -1	 657	 658	 0	 0
O	 -6.901746	 -3.765889	  5.001012	 -1	 659	 678	 0	 0
O	 -4.568908	 -5.366639	  4.912915	 -1	 658	 678	 0	 0
O	 -3.942985	 -7.568855	  3.531542	 -1	 658	 783	 0	 0
O	 -7.122819	 -4.110864	  2.343884	 -1	 659	 784	 0	 0
O	 -4.757911	 -10.559163	  5.330109	 -1	 661	 782	 0	 0
O	 -4.006328	 -8.669253	  7.045265	 -1	 657	 661	 0	 0
O	 -6.855580	 -6.249203	  6.499707	 -1	 660	 678	 0	 0
O	 -6.562725	 -8.894155	  6.287740	 -1	 660	 661	 0	 0
O	  7.608177	 -8.243026	  8.870275	 -1	 662	 663	 0	 0
O	  9.305355	 -5.973224	  11.847403	 -1	 665	 664	 0	 0
O	  7.763612	 -8.857213	  12.834841	 -1	 666	 667	 0	 0
O	  5.630958	 -9.380970	  14.288497	 -1	 667	 668	 0	 0
O	  3.289570	 -8.264474	  14.811733	 -1	 668	 669	 0	 0
O	  2.585131	 -6.024476	  13.579806	 -1	 669	 670	 0	 0
O	  4.229400	 -5.336347	  11.611078	 -1	 670	 671	 0	 0
O	  5.545323	 -7.448151	  12.485467	 -1	 667	 671	 0	 0
O	  5.707790	 -11.916310	  9.899452	 -1	 673	 672	 0	 0
O	  3.742394	 -11.790409	  11.611735	 -1	 673	 674	 0	 0
O	  1.349546	 -10.757359	  12.115130	 -1	 674	 675	 0	 0
O	  0.630778	 -8.932447	  10.326935	 -1	 675	 676	 0	 0
O	  2.490641	 -7.947700	  8.720824	 -1	 676	 677	 0	 0
O	  3.897840	 -9.959996	  9.699919	 -1	 673	 677	 0	 0
O	  5.680208	 -9.974204	  11.676597	 -1	 673	 667	 0	 0
O	  2.120504	 -6.903337	  11.138982	 -1	 676	 670	 0	 0
O	  10.332549	 -8.279804	  12.631287	 -1	 665	 666	 0	 0
O	  9.135409	 -9.502842	  10.612397	 -1	 666	 663	 0	 0
O	  7.857179	 -10.880760	  8.715979	 -1	 663	 672	 0	 0
O	  6.803333	 -5.124999	  12.100211	 -1	 671	 664	 0	 0
O	  5.959028	 -6.536909	  10.014840	 -1	 662	 671	 0	 0
O	  5.067202	 -8.156147	  8.094123	 -1	 677	 662	 0	 0
O	  1.853285	 -4.289754	  11.696355	 -1	 645	 670	 0	 0
O	  0.319135	 -6.533929	  9.219696	 -1	 649	 676	 0	 0
Si	  3.214176	 -11.914640	  3.420520	 -2	 562	 757	 134	 576
Si	  5.584494	 -13.961229	  4.051907	 -2	 562	 1202	 574	 575
Si	  9.648082	 -2.729272	  14.025337	 -2	 138	 563	 564	 1419
Si	  11.925562	 -4.831550	  14.477929	 -2	 1266	 563	 1204	 565
Si	  5.887045	 -14.088013	  7.123293	 -2	 1273	 578	 566	 575
Si	  2.806906	 -13.797230	  7.479014	 -2	 571	 572	 566	 567
Si	  0.951485	 -14.064594	  9.996521	 -2	 1264	 580	 567	 568
Si	 -1.153696	 -11.854005	  9.354956	 -2	 569	 581	 1263	 568
Si	 -0.612617	 -10.591637	  6.529885	 -2	 569	 570	 577	 573
Si	  2.421373	 -10.885723	  6.269794	 -2	 570	 579	 571	 576
Si	  0.508322	 -3.546104	  12.219227	 -2	 593	 633	 582	 592
Si	 -0.222085	 -1.449712	  10.020889	 -2	 586	 582	 590	 583
Si	 -3.564618	  1.816457	  9.099294	 -2	 585	 933	 591	 584
Si	 -2.713648	 -0.075973	  11.293811	 -2	 585	 586	 595	 596
Si	 -1.248449	 -6.245899	  8.887282	 -2	 594	 634	 587	 598
Si	 -1.463768	 -3.342354	  7.744400	 -23	 587	 589	 590	 87
Si	 -4.841393	 -0.068135	  6.908343	 -23	 588	 934	 591	 88
Si	 -4.600411	 -2.917316	  8.042398	 -2	 588	 597	 599	 589
Si	 -4.309845	 -2.853345	  11.197700	 -2	 596	 597	 1269	 600
Si	 -2.175219	 -5.209657	  11.673341	 -2	 593	 594	 1270	 600
Si	 -2.226848	 -0.163307	  14.282173	 -2	 601	 1418	 595	 1271
Si	 -0.105719	 -2.340040	  14.947285	 -2	 601	 1272	 1417	 592
Si	 -2.507329	 -8.109823	  6.752851	 -2	 577	 602	 598	 608
Si	 -3.385523	 -6.304612	  4.406935	 -23	 89	 602	 604	 605
Si	 -6.885986	 -3.054803	  3.575013	 -23	 90	 603	 948	 606
Si	 -7.495924	 -7.609135	  5.930783	 -2	 609	 610	 1274	 769
Si	 -5.197076	 -9.689824	  6.625842	 -2	 610	 1275	 607	 608
Si	  6.324620	 -7.284884	  8.628881	 -2	 186	 611	 631	 632
Si	  8.609438	 -9.492650	  9.079153	 -2	 611	 628	 629	 1216
Si	  8.338835	 -4.660650	  11.868056	 -2	 612	 564	 630	 190
Si	  10.645074	 -6.701974	  12.419418	 -2	 1218	 627	 612	 565
Si	  9.181204	 -9.354319	  12.228933	 -2	 627	 628	 613	 1267
Si	  6.146273	 -8.920268	  12.822460	 -2	 625	 618	 613	 614
Si	  4.336959	 -9.405714	  15.269429	 -2	 1281	 614	 615	 1280
Si	  2.170280	 -7.100662	  14.714102	 -2	 1277	 1278	 615	 616
Si	  2.686489	 -5.647620	  12.002728	 -2	 633	 626	 617	 616
Si	  5.646422	 -6.118512	  11.549743	 -2	 617	 618	 630	 631
Si	  7.157085	 -12.245482	  9.246779	 -2	 578	 619	 1268	 629
Si	  4.754164	 -10.897217	  10.715261	 -2	 625	 619	 620	 624
Si	  2.244226	 -12.112440	  12.147893	 -2	 620	 580	 621	 1279
Si	  0.085845	 -9.969873	  11.443871	 -2	 621	 1276	 581	 622
Si	  1.386991	 -7.574192	  9.855588	 -2	 626	 623	 622	 634
Si	  3.704483	 -8.983687	  8.404874	 -2	 579	 632	 623	 624
Si	 -5.906972	 -4.878004	  5.900469	 -2	 609	 603	 604	 599
O	  2.203708	 -12.128414	 -2.538706	 -1	 721	 722	 0	 0
O	  1.907817	 -13.590354	 -0.395828	 -1	 722	 772	 0	 0
O	  10.534174	 -10.225221	 -8.641317	 -1	 723	 724	 0	 0
O	  4.183014	 -13.741031	 -1.760751	 -1	 722	 725	 0	 0
O	  3.609279	 -11.549132	 -0.381371	 -1	 722	 220	 0	 0
O	  4.318335	 -8.502808	 -2.188522	 -1	 729	 219	 0	 0
O	  3.473381	 -10.286332	 -3.974675	 -1	 729	 721	 0	 0
O	  6.365544	 -12.923753	 -3.101899	 -1	 725	 728	 0	 0
O	 -6.642237	 -3.346228	 -4.112886	 -1	 874	 738	 0	 0
O	  8.299153	 -10.396025	 -10.105295	 -1	 723	 744	 0	 0
O	  10.646997	 -12.792816	 -9.339672	 -1	 745	 724	 0	 0
O	  10.367953	 -11.054409	 -5.292812	 -1	 726	 727	 0	 0
O	  8.399145	 -11.323260	 -3.566468	 -1	 727	 728	 0	 0
O	  5.993081	 -10.299699	 -3.140237	 -1	 729	 728	 0	 0
O	  5.091675	 -8.384169	 -4.725489	 -1	 729	 122	 0	 0
O	  6.952214	 -7.386876	 -6.347760	 -1	 122	 730	 0	 0
O	  8.402350	 -9.276314	 -5.234176	 -1	 730	 727	 0	 0
O	  11.947166	 -11.944369	 -7.210448	 -1	 724	 726	 0	 0
O	  8.284971	 -9.034954	 -7.888950	 -1	 730	 723	 0	 0
O	  9.581567	 -7.218441	 -6.458067	 -1	 730	 221	 0	 0
O	  4.828614	 -5.998818	 -5.874770	 -1	 122	 118	 0	 0
O	 -6.161726	 -7.114182	 -6.671217	 -1	 731	 732	 0	 0
O	 -4.173683	 -7.214824	 -8.370308	 -1	 732	 733	 0	 0
O	 -1.802716	 -8.258144	 -8.911303	 -1	 733	 734	 0	 0
O	 -4.328953	 -9.040491	 -6.444837	 -1	 732	 735	 0	 0
O	 -7.426669	 -5.803062	 -4.756366	 -1	 738	 731	 0	 0
O	 -3.810810	 -9.252513	 -3.840579	 -1	 735	 743	 0	 0
O	 -1.994517	 -5.765173	 -7.960939	 -1	 740	 733	 0	 0
O	  0.463288	 -8.016172	 -7.522772	 -1	 741	 734	 0	 0
O	 -4.814056	 -5.987073	 -0.297683	 -1	 737	 736	 0	 0
O	  2.336303	 -6.872922	 -6.070383	 -1	 741	 118	 0	 0
O	 -4.849707	 -5.205567	 -4.636566	 -1	 738	 739	 0	 0
O	 -2.438336	 -4.691841	 -5.565448	 -1	 739	 740	 0	 0
O	 -0.100105	 -5.822757	 -6.094691	 -1	 740	 741	 0	 0
O	  0.317685	 -8.149751	 -4.888812	 -1	 741	 742	 0	 0
O	 -1.368955	 -8.749932	 -2.930990	 -1	 742	 743	 0	 0
O	 -2.798793	 -6.795349	 -4.002371	 -1	 739	 743	 0	 0
O	  0.732281	 -7.191971	 -2.453168	 -1	 742	 119	 0	 0
O	 -6.317055	 -5.398926	 -2.414017	 -1	 737	 738	 0	 0
O	 -3.530387	 -7.868238	 -1.656164	 -1	 743	 736	 0	 0
O	  1.050370	 -9.789281	 -2.934828	 -1	 721	 742	 0	 0
O	  8.856914	 -12.691442	 -11.336440	 -1	 745	 744	 0	 0
Si	  2.023345	 -10.911411	 -3.596654	 -2	 685	 679	 1438	 719
Si	  2.984566	 -12.755772	 -1.268814	 -2	 682	 683	 679	 680
Si	  9.199642	 -9.447490	 -9.158505	 -2	 681	 791	 697	 688
Si	  11.477812	 -11.550472	 -8.705751	 -2	 689	 1309	 681	 696
Si	  5.460173	 -14.193369	 -2.670568	 -2	 682	 1283	 1437	 686
Si	  11.908197	 -11.357049	 -5.694354	 -2	 690	 1291	 148	 696
Si	  9.340231	 -10.251183	 -4.334816	 -2	 691	 690	 147	 695
Si	  7.012890	 -11.484282	 -2.740796	 -2	 691	 692	 686	 142
Si	  4.720887	 -9.368777	 -3.498576	 -2	 693	 692	 685	 684
Si	  8.320224	 -8.233884	 -6.481718	 -2	 697	 698	 694	 695
Si	 -7.613504	 -6.787227	 -6.029898	 -2	 1289	 700	 1294	 704
Si	 -5.176771	 -8.110029	 -7.476395	 -2	 700	 701	 703	 1288
Si	 -2.675289	 -6.881526	 -8.901669	 -2	 706	 1285	 701	 702
Si	 -0.553594	 -9.057871	 -8.237285	 -2	 707	 1284	 1286	 702
Si	 -4.166848	 -10.069456	 -5.189750	 -2	 705	 1290	 703	 1287
Si	 -3.626637	 -7.091332	 -0.237666	 -23	 763	 708	 85	 718
Si	 -6.006263	 -5.048755	 -0.859190	 -23	 91	 708	 717	 764
Si	 -6.305511	 -4.931864	 -3.968998	 -2	 717	 710	 687	 704
Si	 -3.265544	 -5.262902	 -4.297687	 -23	 715	 92	 710	 711
Si	 -1.332868	 -4.962905	 -6.725369	 -2	 706	 712	 711	 1200
Si	  0.752668	 -7.212642	 -6.139152	 -2	 713	 707	 709	 712
Si	  0.185924	 -8.461990	 -3.302383	 -2	 713	 714	 716	 719
Si	 -2.873441	 -8.158750	 -3.103882	 -2	 705	 714	 715	 718
Si	  7.890636	 -11.380168	 -11.316290	 -2	 720	 1296	 1319	 688
Si	  10.196874	 -13.421491	 -10.764928	 -2	 689	 1320	 1295	 720
O	  2.785503	 -15.699515	  0.925051	 -1	 772	 773	 0	 0
O	  0.549907	 -15.869823	 -0.540484	 -1	 788	 772	 0	 0
O	  2.897876	 -18.267706	  0.226029	 -1	 773	 789	 0	 0
O	  2.618832	 -16.529299	  4.272889	 -1	 774	 775	 0	 0
O	  0.650473	 -16.797554	  5.999899	 -1	 775	 776	 0	 0
O	 -1.756281	 -15.773289	  6.425968	 -1	 777	 776	 0	 0
O	 -2.656880	 -13.858672	  4.839485	 -1	 777	 778	 0	 0
O	 -0.796457	 -12.861171	  3.218608	 -1	 778	 779	 0	 0
O	  0.653229	 -14.751203	  4.331525	 -1	 779	 775	 0	 0
O	  4.198045	 -17.419259	  2.355253	 -1	 773	 774	 0	 0
O	  0.535850	 -14.509844	  1.676752	 -1	 779	 772	 0	 0
O	  1.832446	 -12.693331	  3.107634	 -1	 635	 779	 0	 0
O	 -2.919941	 -11.473321	  3.690204	 -1	 778	 782	 0	 0
O	 -9.551271	 -13.732646	  0.653671	 -1	 780	 781	 0	 0
O	 -9.743637	 -11.240062	  1.604762	 -1	 786	 780	 0	 0
O	 -7.285384	 -13.490467	  2.043596	 -1	 787	 781	 0	 0
O	 -4.809128	 -9.908563	  2.709552	 -1	 782	 783	 0	 0
O	 -3.937892	 -8.179438	  0.921408	 -1	 783	 736	 0	 0
O	 -7.367259	 -5.273600	 -0.017594	 -1	 737	 784	 0	 0
O	 -8.500141	 -6.406248	  2.095961	 -1	 785	 784	 0	 0
O	 -6.220368	 -7.733858	  2.143504	 -1	 785	 783	 0	 0
O	 -5.412818	 -12.347812	  3.495318	 -1	 787	 782	 0	 0
O	 -8.546167	 -9.022537	  2.273214	 -1	 785	 786	 0	 0
O	 -7.727331	 -7.559496	  4.331622	 -1	 785	 660	 0	 0
O	 -7.848660	 -11.297260	  3.470283	 -1	 786	 787	 0	 0
O	  1.107793	 -18.166332	 -1.770739	 -1	 788	 789	 0	 0
Si	  1.450521	 -14.922380	  0.407196	 -2	 746	 747	 756	 680
Si	  3.728692	 -17.025362	  0.859950	 -2	 746	 755	 748	 1282
Si	  4.159076	 -16.831939	  3.871347	 -2	 755	 749	 574	 1304
Si	  1.591560	 -15.725478	  5.231552	 -2	 754	 572	 749	 750
Si	 -0.735781	 -16.958576	  6.825572	 -2	 1265	 1299	 750	 751
Si	 -3.028233	 -14.843666	  6.067125	 -2	 1297	 1298	 751	 752
Si	 -1.878556	 -12.511817	  4.372401	 -2	 753	 573	 758	 752
Si	  0.572119	 -13.707791	  3.083922	 -2	 753	 754	 756	 757
Si	 -10.423960	 -12.355820	  0.664698	 -2	 1301	 1302	 759	 760
Si	 -8.302715	 -14.532761	  1.328416	 -2	 761	 1300	 759	 1303
Si	 -4.481394	 -11.049276	  3.810051	 -2	 762	 758	 607	 767
Si	 -4.717546	 -8.330079	  2.338527	 -2	 762	 763	 605	 766
Si	 -8.109362	 -4.991199	  1.406285	 -2	 764	 765	 606	 1136
Si	 -7.737542	 -7.688322	  2.723015	 -2	 769	 765	 766	 768
Si	 -9.081989	 -10.437794	  2.840333	 -2	 1305	 770	 768	 760
Si	 -6.996003	 -12.686937	  3.427216	 -2	 761	 770	 767	 1306
Si	  0.142531	 -16.854075	 -1.750650	 -2	 1308	 1292	 771	 747
Si	  2.448203	 -18.895786	 -1.198561	 -2	 1307	 771	 748	 1293
O	  9.952379	 -6.654119	 -12.105074	 -1	 809	 808	 0	 0
O	  9.657629	 -8.116169	 -9.961366	 -1	 809	 723	 0	 0
O	  11.357950	 -6.074838	 -9.947739	 -1	 809	 311	 0	 0
O	  1.106884	  2.128661	 -13.678587	 -1	 1179	 815	 0	 0
O	  1.587394	 -1.639293	 -16.236918	 -1	 810	 811	 0	 0
O	  3.419718	 -3.566197	 -16.011204	 -1	 811	 812	 0	 0
O	  0.322002	 -0.328768	 -14.322733	 -1	 810	 815	 0	 0
O	  3.938311	 -3.777623	 -13.406281	 -1	 818	 812	 0	 0
O	  2.934616	 -0.512778	 -9.864050	 -1	 813	 814	 0	 0
O	  2.898848	  0.268935	 -14.201539	 -1	 815	 816	 0	 0
O	  6.380165	 -3.275042	 -12.496692	 -1	 817	 818	 0	 0
O	  4.949878	 -1.321054	 -13.568738	 -1	 818	 816	 0	 0
O	  4.741659	  1.137040	 -12.552140	 -1	 326	 816	 0	 0
O	  8.480836	 -1.717469	 -12.018142	 -1	 817	 327	 0	 0
O	  2.196836	  1.981092	 -10.291554	 -1	 325	 814	 0	 0
O	  1.431616	  0.075369	 -11.980384	 -1	 814	 815	 0	 0
O	  4.218734	 -2.393349	 -11.221865	 -1	 818	 813	 0	 0
O	  8.799491	 -4.314391	 -12.500530	 -1	 817	 808	 0	 0
Si	  9.772466	 -5.436521	 -13.162356	 -2	 1436	 790	 807	 1311
Si	  10.733238	 -7.281478	 -10.835181	 -2	 1429	 790	 791	 792
Si	  0.135051	 -1.312725	 -15.594872	 -2	 1321	 794	 1315	 796
Si	  2.571334	 -2.636122	 -17.042035	 -2	 794	 795	 1314	 1312
Si	  3.582272	 -4.594567	 -14.755451	 -2	 1313	 795	 1316	 797
Si	  4.122484	 -1.616443	 -9.803368	 -2	 798	 299	 806	 1198
Si	  1.742858	  0.426135	 -10.424892	 -2	 804	 805	 798	 1199
Si	  1.443160	  0.542431	 -13.535365	 -2	 793	 796	 805	 799
Si	  4.483128	  0.211392	 -13.864055	 -2	 801	 802	 1317	 799
Si	  7.935045	 -2.987100	 -12.868084	 -2	 803	 1318	 807	 800
Si	  4.875680	 -2.683860	 -12.669583	 -2	 801	 797	 806	 800
O	 -12.074475	  1.608529	 -6.244020	 -1	 870	 871	 0	 0
O	 -12.370931	  0.146201	 -4.100414	 -1	 1139	 871	 0	 0
O	 -3.744575	  3.511335	 -12.345903	 -1	 873	 872	 0	 0
O	 -9.260892	 -2.990617	 -3.782789	 -1	 874	 1140	 0	 0
O	 -7.917226	 -1.503169	 -5.513387	 -1	 874	 875	 0	 0
O	 -10.095734	 -0.004475	 -5.465338	 -1	 875	 871	 0	 0
O	 -10.668903	  2.187811	 -4.086686	 -1	 484	 871	 0	 0
O	 -7.555798	 -1.174491	 -2.895905	 -1	 874	 487	 0	 0
O	 -9.961104	  5.234452	 -5.893272	 -1	 483	 879	 0	 0
O	 -10.804801	  3.450611	 -7.679990	 -1	 870	 879	 0	 0
O	 -7.913205	  0.812803	 -6.806485	 -1	 875	 878	 0	 0
O	 -5.979721	  3.341623	 -13.810772	 -1	 898	 872	 0	 0
O	 -3.631751	  0.943739	 -13.044259	 -1	 873	 899	 0	 0
O	 -3.910795	  2.682147	 -8.997398	 -1	 876	 877	 0	 0
O	 -5.879038	  2.413683	 -7.271782	 -1	 877	 878	 0	 0
O	 -8.286359	  3.437561	 -6.844986	 -1	 878	 879	 0	 0
O	 -9.186507	  5.352774	 -8.430803	 -1	 879	 880	 0	 0
O	 -7.325969	  6.350067	 -10.053074	 -1	 881	 880	 0	 0
O	 -5.876399	  4.460242	 -8.938763	 -1	 881	 877	 0	 0
O	 -2.331583	  1.792186	 -10.915034	 -1	 873	 876	 0	 0
O	 -5.993212	  4.701989	 -11.594264	 -1	 881	 872	 0	 0
O	 -4.696615	  6.518502	 -10.163381	 -1	 881	 485	 0	 0
O	 -9.449569	  7.738125	 -9.580084	 -1	 887	 880	 0	 0
O	 -20.440600	  6.623465	 -10.376694	 -1	 882	 883	 0	 0
O	 -18.451865	  6.522119	 -12.075622	 -1	 883	 884	 0	 0
O	 -16.080899	  5.478799	 -12.616617	 -1	 884	 885	 0	 0
O	 -18.607136	  4.696452	 -10.150151	 -1	 883	 886	 0	 0
O	 -21.704852	  7.933881	 -8.461680	 -1	 882	 892	 0	 0
O	 -18.089559	  4.484043	 -7.545166	 -1	 897	 886	 0	 0
O	 -16.273265	  7.971383	 -11.665526	 -1	 884	 894	 0	 0
O	 -13.815461	  5.720384	 -11.227358	 -1	 885	 895	 0	 0
O	 -11.339206	  9.302288	 -10.561402	 -1	 887	 888	 0	 0
O	 -10.467520	  11.032008	 -12.348880	 -1	 1184	 888	 0	 0
O	 -19.092929	  7.750575	 -4.003160	 -1	 889	 890	 0	 0
O	 -12.749995	  11.477588	 -11.126784	 -1	 891	 888	 0	 0
O	 -11.941879	  6.864021	 -9.775697	 -1	 895	 887	 0	 0
O	 -15.075794	  10.188909	 -10.997074	 -1	 891	 894	 0	 0
O	 -14.256959	  11.651949	 -8.938666	 -1	 891	 528	 0	 0
O	 -19.128456	  8.530988	 -8.341152	 -1	 892	 893	 0	 0
O	 -16.716760	  9.046402	 -9.270259	 -1	 893	 894	 0	 0
O	 -14.378288	  7.914185	 -9.800005	 -1	 894	 895	 0	 0
O	 -13.960614	  5.587400	 -8.592733	 -1	 895	 896	 0	 0
O	 -15.647704	  4.986624	 -6.635577	 -1	 897	 896	 0	 0
O	 -17.076975	  6.941594	 -7.707685	 -1	 897	 893	 0	 0
O	 -17.285194	  9.399688	 -6.691087	 -1	 893	 527	 0	 0
O	 -13.546468	  6.544585	 -6.157755	 -1	 530	 896	 0	 0
O	 -19.830583	  10.243353	 -4.429773	 -1	 890	 526	 0	 0
O	 -20.595238	  8.338017	 -6.119331	 -1	 890	 892	 0	 0
O	 -17.809135	  5.868317	 -5.360750	 -1	 889	 897	 0	 0
O	 -13.228378	  3.947275	 -6.639415	 -1	 870	 896	 0	 0
O	 -5.421269	  1.045501	 -15.041754	 -1	 898	 899	 0	 0
Si	 -12.255528	  2.826236	 -7.302131	 -2	 828	 819	 868	 1440
Si	 -11.294182	  0.980783	 -4.973400	 -2	 825	 819	 820	 824
Si	 -5.078541	  4.289453	 -12.863819	 -2	 1157	 821	 830	 839
Si	 -2.800936	  2.186083	 -12.410338	 -2	 1158	 821	 838	 831
Si	 -7.843214	 -2.256306	 -4.072904	 -2	 823	 826	 822	 687
Si	 -8.818576	 -0.456814	 -6.375154	 -2	 1439	 829	 823	 824
Si	 -2.370552	  2.379507	 -9.398941	 -2	 1201	 364	 838	 832
Si	 -4.938517	  3.485372	 -8.039402	 -2	 833	 362	 837	 832
Si	 -7.265293	  2.252661	 -6.446110	 -2	 833	 834	 829	 352
Si	 -9.557861	  4.367779	 -7.203163	 -2	 834	 827	 828	 835
Si	 -8.408633	  6.699034	 -8.898553	 -2	 841	 363	 836	 835
Si	 -5.957958	  5.503059	 -10.187032	 -2	 836	 837	 839	 840
Si	 -21.892252	  6.949328	 -9.734485	 -2	 842	 1334	 846	 1328
Si	 -19.455519	  5.626526	 -11.180982	 -2	 842	 843	 845	 1327
Si	 -16.954038	  6.855030	 -12.606256	 -2	 1324	 843	 844	 848
Si	 -14.832342	  4.678684	 -11.941872	 -2	 849	 1323	 844	 1325
Si	 -18.444581	  3.668081	 -8.894398	 -2	 1329	 845	 1326	 847
Si	 -11.010905	  8.161962	 -9.461631	 -2	 841	 850	 421	 854
Si	 -11.247624	  10.880772	 -10.932427	 -2	 850	 851	 420	 853
Si	 -17.905386	  6.645223	 -3.942253	 -2	 867	 852	 438	 1131
Si	 -20.285011	  8.687801	 -4.563777	 -2	 865	 866	 852	 1397
Si	 -14.267170	  11.523123	 -10.547273	 -2	 1331	 853	 855	 856
Si	 -20.584259	  8.804692	 -7.673584	 -2	 857	 1322	 846	 866
Si	 -17.543726	  8.474041	 -8.003002	 -2	 857	 858	 862	 863
Si	 -15.611050	  8.774038	 -10.430683	 -2	 858	 859	 855	 848
Si	 -13.525515	  6.524300	 -9.844466	 -2	 849	 859	 860	 854
Si	 -14.092824	  5.274566	 -7.006969	 -2	 860	 868	 861	 864
Si	 -17.151624	  5.578193	 -6.809196	 -2	 867	 861	 862	 847
Si	 -6.387547	  2.356775	 -15.021604	 -2	 869	 830	 1414	 1336
Si	 -4.081875	  0.315064	 -14.469515	 -2	 1335	 1415	 869	 831
O	 -9.857961	  0.746438	 -0.211671	 -1	 975	 976	 0	 0
O	 -3.296375	  10.230853	  10.838443	 -1	 977	 978	 0	 0
O	 -5.531280	  10.059841	  9.373071	 -1	 977	 1003	 0	 0
O	 -3.183311	  7.661958	  10.139584	 -1	 978	 1004	 0	 0
O	 -9.874774	 -0.073423	  4.030267	 -1	 979	 980	 0	 0
O	 -12.195995	 -0.525116	  5.146101	 -1	 980	 981	 0	 0
O	 -14.588427	  0.488757	  5.675343	 -1	 981	 982	 0	 0
O	 -14.927894	  2.792064	  4.409237	 -1	 982	 983	 0	 0
O	 -13.350918	  3.475172	  2.403354	 -1	 983	 984	 0	 0
O	 -11.974992	  1.434127	  3.366186	 -1	 980	 984	 0	 0
O	 -11.825763	 -1.102234	  2.580853	 -1	 980	 1142	 0	 0
O	 -15.427616	  1.867401	  1.974459	 -1	 1145	 983	 0	 0
O	 -9.198578	 -1.760896	  0.250743	 -1	 1141	 976	 0	 0
O	 -8.330360	  0.171872	  1.877435	 -1	 979	 976	 0	 0
O	 -11.175569	  2.649020	  1.107067	 -1	 975	 984	 0	 0
O	 -15.816503	  4.431674	  2.515384	 -1	 995	 983	 0	 0
O	 -7.309172	  0.505845	  4.273066	 -1	 979	 1011	 0	 0
O	 -10.905992	  3.875189	  3.384436	 -1	 1016	 984	 0	 0
O	 -12.697950	  0.447750	  7.562465	 -1	 981	 1013	 0	 0
O	 -15.198673	  2.707868	  7.032554	 -1	 982	 1014	 0	 0
O	 -13.983320	  11.552941	  7.665434	 -1	 985	 986	 0	 0
O	 -13.258222	  13.089069	  5.649940	 -1	 986	 502	 0	 0
O	 -15.668608	  13.352324	  6.693399	 -1	 986	 987	 0	 0
O	 -15.598837	  8.794986	  4.225551	 -1	 988	 989	 0	 0
O	 -14.963169	  10.798421	  2.683160	 -1	 507	 989	 0	 0
O	 -17.297490	  10.848559	  3.937611	 -1	 989	 990	 0	 0
O	 -15.069783	  11.147559	  5.311575	 -1	 986	 989	 0	 0
O	 -13.590696	  10.585323	  10.081985	 -1	 985	 994	 0	 0
O	 -15.010216	  9.154759	  8.360946	 -1	 985	 992	 0	 0
O	 -16.370121	  7.759478	  6.545656	 -1	 988	 992	 0	 0
O	 -16.586623	  14.176871	  9.072715	 -1	 993	 987	 0	 0
O	 -17.903899	  12.329231	  7.730107	 -1	 987	 991	 0	 0
O	 -19.070775	  10.699504	  5.960857	 -1	 990	 991	 0	 0
O	 -4.731215	  2.943029	  9.170402	 -1	 1005	 647	 0	 0
O	 -6.211460	  0.777937	  6.684311	 -1	 651	 1011	 0	 0
O	 -16.193171	  6.212867	  4.445160	 -1	 995	 988	 0	 0
O	 -19.661805	  9.580511	  3.711680	 -1	 1017	 990	 0	 0
O	 -17.538961	  9.724374	  7.901970	 -1	 991	 992	 0	 0
O	 -15.633149	  12.197722	  10.567063	 -1	 993	 994	 0	 0
O	 -15.825515	  14.690306	  11.518154	 -1	 993	 999	 0	 0
O	 -13.366570	  12.439197	  11.957151	 -1	 994	 1000	 0	 0
O	 -16.802421	  6.798119	  1.938364	 -1	 995	 996	 0	 0
O	 -16.585728	  8.247992	 -0.209333	 -1	 524	 996	 0	 0
O	 -18.847656	  8.369917	  1.208329	 -1	 1017	 996	 0	 0
O	 -18.221734	  6.167700	 -0.173045	 -1	 996	 1150	 0	 0
O	 -19.037350	  3.178097	  1.625360	 -1	 1149	 998	 0	 0
O	 -18.284510	  5.067690	  3.339950	 -1	 995	 998	 0	 0
O	 -21.133762	  7.487740	  2.794393	 -1	 1017	 997	 0	 0
O	 -8.077931	 -1.931017	  3.508122	 -1	 979	 659	 0	 0
O	 -20.841474	  4.842400	  2.583153	 -1	 997	 998	 0	 0
O	 -13.930538	  14.633108	  13.383675	 -1	 999	 1000	 0	 0
O	 -6.671262	  5.494234	  5.165526	 -1	 1001	 1002	 0	 0
O	 -4.972828	  7.763719	  8.142089	 -1	 1003	 1004	 0	 0
O	 -6.515136	  4.879343	  9.130254	 -1	 1005	 1006	 0	 0
O	 -8.647225	  4.355972	  10.583182	 -1	 1006	 1007	 0	 0
O	 -10.989179	  5.472081	  11.107147	 -1	 1007	 1008	 0	 0
O	 -11.693168	  7.712675	  9.875885	 -1	 1009	 1008	 0	 0
O	 -10.049349	  8.400208	  7.906491	 -1	 1009	 1010	 0	 0
O	 -8.733425	  6.288405	  8.780881	 -1	 1010	 1006	 0	 0
O	 -8.570959	  1.820246	  6.194865	 -1	 1011	 1012	 0	 0
O	 -10.537046	  1.946851	  7.906986	 -1	 1012	 1013	 0	 0
O	 -12.929202	  2.979197	  8.410544	 -1	 1013	 1014	 0	 0
O	 -13.648096	  4.805200	  6.621458	 -1	 1014	 1015	 0	 0
O	 -11.788107	  5.788856	  5.016238	 -1	 1015	 1016	 0	 0
O	 -10.380342	  3.776947	  5.994604	 -1	 1012	 1016	 0	 0
[...]
 1149      Si    -18.7595760000     2.6876670000     0.1047370000
 1150      Si    -18.9962950000     5.4064770000    -1.3660590000
 1151      Si    -22.0162910000     6.0482330000    -0.9815720000
 1152      Si    -23.3601710000     3.2991490000    -0.8649820000
 1153      Si    -21.2741860000     1.0500060000    -0.2780990000
 1154      Si    -14.1362180000    -3.1175190000    -5.4552370000
 1155      Si    -11.8312370000    -5.1585260000    -4.9033100000
 1156      O      -4.3258040000     7.0828240000   -15.8103880000
 1157      O      -4.6218100000     5.6210910000   -13.6661150000
 1158      O      -1.5122210000     2.4836770000   -13.3491560000
 1159      O      -0.1681050000     3.9717210000   -15.0790880000
 1160      O      -2.3470630000     5.4698200000   -15.0317060000
 1161      O      -2.9202320000     7.6621050000   -13.6530530000
 1162      O       0.1928730000     4.2998030000   -12.4622730000
 1163      O     -12.6913540000    12.0972630000   -19.9415040000
 1164      O     -10.8584650000    10.1707460000   -19.7165180000
 1165      O     -13.9557310000    13.4087700000   -18.0273820000
 1166      O     -10.3404380000     9.9589330000   -17.1108670000
 1167      O     -11.3431170000    13.2247600000   -13.5686980000
 1168      O     -11.3793350000    14.0058780000   -17.9068530000
 1169      O      -7.8985830000    10.4615140000   -16.2012780000
 1170      O      -9.3283040000    12.4158890000   -17.2740530000
 1171      O      -9.5370890000    14.8735950000   -16.2567270000
 1172      O      -5.7973470000    12.0194740000   -15.7234560000
 1173      O     -12.0819120000    15.7176480000   -13.9961400000
 1174      O     -12.8471330000    13.8119240000   -15.6849710000
 1175      O     -10.0600150000    11.3432070000   -14.9264510000
 1176      O      -5.4792570000     9.4221650000   -16.2051160000
 1177      Si     -4.5057160000     8.3004210000   -16.8676700000
 1178      Si     -3.5455110000     6.4550780000   -14.5397680000
 1179      Si     -0.0940940000     3.2185830000   -13.6386050000
 1180      Si     -1.0699050000     5.0174810000   -15.9415220000
 1181      Si    -14.1431320000    12.4242180000   -19.3001860000
 1182      Si    -11.7068480000    11.1008210000   -20.7473490000
 1183      Si    -10.6959100000     9.1423760000   -18.4607650000
 1184      Si    -10.1562650000    12.1201130000   -13.5079540000
 1185      Si    -12.5358900000    14.1626910000   -14.1294780000
 1186      Si    -12.8355880000    14.2789860000   -17.2399520000
 1187      Si     -9.7950550000    13.9483350000   -17.5693690000
 1188      Si     -6.3437030000    10.7494550000   -16.5726710000
 1189      Si     -9.4030690000    11.0526960000   -16.3741690000
 1190      O       6.7354680000     2.3041180000    -5.8113610000
 1191      O       4.4092290000     4.7170400000    -6.5804510000
 1192      O       3.1466600000     3.9035040000    -8.7181930000
 1193      O       6.7980830000     1.0121490000    -8.0755630000
 1194      O      -2.1256530000     5.4014660000    -5.5354350000
 1195      O      -0.5812390000     5.6467620000    -7.6882660000
 1196      O       0.4045030000     5.8931880000    -5.3736550000
 1197      O       2.9395430000    -4.4342680000    -6.8568150000
 1198      O       3.8112290000    -2.7045480000    -8.6442940000
 1199      O       0.3818620000     0.2012900000    -9.5832950000
 1200      O      -0.7980620000    -3.5486290000    -7.2924260000
 1201      O      -1.7708860000     1.2522400000    -8.4054160000
 1202      H       6.9341960000   -13.7678920000     3.1710200000
 1203      H       8.1051230000   -12.6443010000     1.0533850000
 1204      H      13.2148520000    -4.5344530000    13.5406670000
 1205      H      14.5585180000    -3.0470040000    11.8100690000
 1206      H      14.5631050000    -0.7306450000    10.5162430000
 1207      H      20.1447270000     0.2487380000     6.4076940000
 1208      H      11.8057010000     0.6440850000    13.2359410000
 1209      H      17.2973450000    -5.3193420000     3.3094500000
 1210      H      15.8166510000    -7.4850280000     0.8226930000
 1211      H      10.5327240000     5.3202950000     7.5469300000
 1212      H      13.9489220000   -10.1936660000    -2.3529310000
 1213      H       5.1905500000     7.8558530000    10.6323680000
 1214      H       8.9285860000     5.0014540000    11.1655380000
 1215      H       4.6671750000     4.3248700000    11.9619780000
 1216      H       9.8731530000    -9.3690510000     8.0709160000
 1217      H      11.2685930000    -7.9293300000     6.3194740000
 1218      H      11.8521780000    -6.5010410000    11.3533230000
 1219      H      12.9881970000    -5.3297230000     9.2586580000
 1220      H      14.6828670000    -8.2935970000    -6.3953470000
 1221      H      20.9635230000     0.9398420000     3.9743000000
 1222      H      22.3071890000     2.4272910000     2.2437010000
 1223      H      19.5548210000     6.1189750000     3.6702400000
 1224      H      12.7696880000    -1.2534880000    -9.9176640000
 1225      H      19.4200630000     7.3816660000     0.0777650000
 1226      H      22.3117770000     4.7436500000     0.9498750000
 1227      H       9.8672390000     7.9974880000    -6.9927610000
 1228      H      12.8717470000     4.6490290000    -6.3504120000
 1229      H      11.7725500000    10.4525790000    -4.3185340000
 1230      H      14.8404730000     7.5771210000    -3.0591670000
 1231      H       6.5438240000     3.1250060000   -12.4890550000
 1232      H      10.0442290000     0.2633270000   -11.2486940000
 1233      H      13.5076560000    12.9768610000    -1.5131710000
 1234      H      16.2643680000     9.5182470000    -0.8363720000
 1235      H      12.9392210000    13.3301470000     1.0660010000
 1236      H      16.6772570000    10.4757490000     1.5991710000
 1237      H      12.4162960000     9.7997590000     2.3962770000
 1238      H      17.6218240000    -3.8947560000    -1.4954510000
 1239      H      19.6012990000    -1.0261510000     1.7876220000
 1240      H      20.7373170000     0.1451660000    -0.3070440000
 1241      H      14.7874570000     1.7691910000    -6.5173370000
 1242      H      16.2435790000     3.1756720000    -4.8039970000
 1243      H      17.5668530000     4.6323350000    -3.0037830000
 1244      H      20.3358480000     1.8065810000    -2.3435030000
 1245      H      -2.4720320000    14.3816230000     9.5312930000
 1246      H       0.6417640000    11.0186170000    10.7222360000
 1247      H       0.2843570000    13.0059110000     6.8116560000
 1248      H     -19.4392210000    12.6764900000    -5.3729670000
 1249      H     -12.7241150000    22.5841400000     5.8005060000
 1250      H       5.8659790000    13.9852940000     2.7031070000
 1251      H      -8.6528890000    21.7199860000    -4.4679030000
 1252      H     -10.0859470000    20.3037100000    -2.7195110000
 1253      H     -10.6218160000    18.9249120000    -7.7847240000
 1254      H     -11.7776450000    17.7182470000    -5.7036630000
 1255      H     -11.9949110000    16.9188330000    -9.9943140000
 1256      H     -13.4313740000    15.4455560000    -8.2692750000
 1257      H      -3.7460240000    19.0568510000     3.8423430000
 1258      H      -9.0888890000    21.5931130000     6.9276190000
 1259      H      -5.3495970000    18.7383970000     7.4602240000
 1260      H      -9.6122650000    18.0621300000     8.2572290000
 1261      H     -16.0820240000    17.6978390000     0.2617840000
 1262      H     -14.6020700000    19.8691910000     2.7454830000
 1263      H      -2.7281040000   -12.2026720000     9.2144050000
 1264      H       0.4564830000   -15.5144070000    10.5234190000
 1265      H      -0.4041900000   -16.8622710000     8.4099210000
 1266      H      12.3956070000    -5.2261510000    15.9733950000
 1267      H       9.5482240000   -10.7942320000    12.8751520000
 1268      H       8.0679800000   -12.9593230000    10.3890600000
 1269      H      -5.6305530000    -2.9516960000    12.1393080000
 1270      H      -2.6254790000    -6.2997680000    12.7809290000
 1271      H      -3.7252420000    -0.4966060000    14.8135350000
 1272      H      -0.6573190000    -3.3720630000    16.0729020000
 1273      H       6.2002510000   -15.6679600000     7.2134360000
 1274      H      -8.9540930000    -7.8230870000     6.6421240000
 1275      H      -5.4535630000   -10.6858580000     7.8833750000
 1276      H      -0.7110260000    -9.1792890000    12.6145700000
 1277      H       0.7450960000    -7.7728080000    14.3279090000
 1278      H       2.0690610000    -6.3168500000    16.1282850000
 1279      H       2.3607570000   -12.6662730000    13.6683980000
 1280      H       3.6318130000   -10.8611380000    15.1461870000
 1281      H       4.8379310000    -9.1415110000    16.7876750000
 1282      H       5.0172900000   -16.7275600000    -0.0774740000
 1283      H       6.3609560000   -15.2401120000    -1.8080730000
 1284      H       0.2390460000    -9.8698380000    -9.3965430000
 1285      H      -2.7556250000    -6.2786080000   -10.4063790000
 1286      H      -1.1050690000   -10.0909860000    -7.1107780000
 1287      H      -2.9764200000   -11.1220440000    -5.5396150000
 1288      H      -6.0831040000    -9.0551570000    -8.4327890000
 1289      H      -8.3251030000    -8.1520720000    -5.5122360000
 1290      H      -5.5392140000   -10.8779620000    -4.8969880000
 1291      H      12.5078620000   -12.4843160000    -4.7008290000
 1292      H       0.2521460000   -16.0817300000    -3.1686110000
 1293      H       3.6546160000   -18.6941490000    -2.2648180000
 1294      H      -8.5208830000    -6.0604730000    -7.1680720000
 1295      H       9.8843490000   -14.9993210000   -10.5530590000
 1296      H       6.3544420000   -11.8438120000   -11.0842980000
 1297      H      -3.4314760000   -13.9769930000     7.3770160000
 1298      H      -4.2752900000   -15.7606260000     5.5916920000
 1299      H      -1.3835770000   -18.3986420000     6.4638020000
 1300      H      -7.5095090000   -15.3443410000     0.1684310000
 1301      H     -10.5047450000   -11.7534970000    -0.8406770000
 1302      H     -11.9228030000   -12.6897130000     1.1953940000
 1303      H      -8.8541890000   -15.5658750000     2.4549230000
 1304      H       4.7587420000   -17.9592050000     4.8648720000
 1305      H     -10.1871320000   -10.1650440000     4.0000290000
 1306      H      -7.4309860000   -13.6240450000     4.6775550000
 1307      H       2.1356780000   -20.4736160000    -0.9866920000
 1308      H      -1.3942290000   -17.3181060000    -1.5179300000
 1309      H      12.7659610000   -11.2532660000    -9.6438420000
 1310      H      12.0664400000    -3.0289010000   -11.7541620000
 1311      H      11.2225020000    -4.8114420000   -13.5403770000
 1312      H       3.5749880000    -1.7405290000   -17.9366750000
 1313      H       4.7722510000    -5.6477490000   -15.1059830000
 1314      H       1.6655670000    -3.5808620000   -17.9991560000
 1315      H      -0.5759820000    -2.6771830000   -15.0779370000
 1316      H       2.2105970000    -5.4037770000   -14.4625270000
 1317      H       5.3107850000     0.7830490000   -15.1311500000
 1318      H       8.0668060000    -2.6748610000   -14.4545140000
 1319      H       8.0008170000   -10.6074360000   -12.7349790000
 1320      H      11.4037370000   -13.2192590000   -11.8305200000
 1321      H      -0.7722120000    -0.5861780000   -16.7344390000
 1322      H     -20.9216770000    10.3910320000    -7.8176350000
 1323      H     -14.0391370000     3.8671050000   -13.1018570000
 1324      H     -17.0343730000     7.4579480000   -14.1109650000
 1325      H     -15.3832510000     3.6459570000   -10.8160930000
 1326      H     -17.2546020000     2.6148990000    -9.2449290000
 1327      H     -20.3618520000     4.6813990000   -12.1373750000
 1328      H     -22.6038520000     5.5844840000    -9.2168230000
 1329      H     -19.8173970000     2.8589810000    -8.6023030000
 1330      H     -13.8968860000    13.9378460000   -13.2878820000
 1331      H     -15.0297690000    12.8051980000   -11.1743260000
 1332      H     -14.0266030000    -2.3451740000    -6.8731980000
 1333      H     -10.6235660000    -4.9572060000    -5.9701330000
 1334      H     -22.7990660000     7.6764700000   -10.8733860000
 1335      H      -4.3933840000    -1.2617840000   -14.2577070000
 1336      H      -7.9243070000     1.8927440000   -14.7888850000
 1337      H     -17.0064020000     1.5344790000     5.5104840000
 1338      H     -13.8217000000    -1.7774640000     6.8181050000
 1339      H     -14.6823730000    -3.1253280000     4.7046060000
 1340      H      -1.8831420000     8.5104050000    12.2688080000
 1341      H     -16.4027010000    16.2458010000     5.0976350000
 1342      H     -17.8346180000    14.8294150000     6.8468570000
 1343      H     -18.3704870000    13.4506180000     1.7816430000
 1344      H     -19.5267660000    12.2433570000     3.8620380000
 1345      H     -19.9099930000    10.7855640000     8.4345580000
 1346      H     -16.9042270000     7.4367880000     9.0763430000
 1347      H     -18.0041150000    13.2410420000    11.1080580000
 1348      H     -14.9355010000    10.3648800000    12.3675870000
 1349      H     -19.7435820000    11.4445380000    -0.4279460000
 1350      H     -21.1804940000     9.9706670000     1.2964260000
 1351      H     -11.4941290000    13.5829430000    13.4079830000
 1352      H     -23.2328410000     5.9134690000     2.9375370000
 1353      H     -19.7323110000     3.0506980000     4.1787880000
 1354      H     -16.2683190000    15.7646200000    13.9135830000
 1355      H     -13.5121730000    12.3056180000    14.5911100000
 1356      H     -14.9892080000     4.5576540000     8.9092550000
 1357      H     -13.5336530000     5.9637470000    10.6233220000
 1358      H     -12.2091220000     7.4200930000    12.4229710000
 1359      H     -11.9179910000     1.0702830000     9.9638110000
 1360      H     -10.6470600000     2.8765100000    11.4407100000
 1361      H      -9.4408170000     4.5950450000    13.0830890000
 1362      H       5.2760730000    19.8555300000    -0.0343470000
 1363      H       8.3904350000    16.4929110000     1.1558680000
 1364      H      -1.5090600000    12.4830680000   -13.6222510000
 1365      H       5.1406240000    21.1189260000    -3.6269850000
 1366      H       1.6755260000     9.1713330000   -12.3132360000
 1367      H       0.8154190000     7.8238560000   -14.4274620000
 1368      H       8.0330280000    18.4802060000    -2.7547120000
 1369      H     -11.6898590000    18.1500800000   -14.9391720000
 1370      H      -4.9749940000    28.0590290000    -3.7651950000
 1371      H      -4.4115100000    21.7340440000   -10.6973480000
 1372      H      -1.4064350000    18.3859720000   -10.0557260000
 1373      H      -2.5061980000    24.1891340000    -8.0231200000
 1374      H       0.5617250000    21.3136770000    -6.7637540000
 1375      H      -7.7350490000    16.8626530000   -16.1945320000
 1376      H      -4.2345190000    13.9998820000   -14.9532810000
 1377      H      -0.7705270000    26.7138040000    -5.2184850000
 1378      H       1.9856190000    23.2548030000    -4.5409590000
 1379      H      -1.3395270000    27.0667030000    -2.6385860000
 1380      H       2.3995240000    24.2132860000    -2.1054770000
 1381      H      -1.8624530000    23.5363150000    -1.3083100000
 1382      H       0.5085840000    15.5068390000   -10.2228140000
 1383      H       1.9648300000    16.9122270000    -8.5085840000
 1384      H       3.2881040000    18.3688910000    -6.7083700000
 1385      H       3.5798010000    12.0194670000    -9.1682580000
 1386      H       4.8514230000    13.8249900000    -7.6911960000
 1387      H       6.0569750000    15.5442290000    -6.0489800000
 1388      H      -8.3329030000    23.1727290000    -9.3039180000
 1389      H      -6.8533990000    25.3434850000    -6.8208840000
 1390      H     -17.7102250000    -0.2404380000     3.6724300000
 1391      H     -18.5534730000    -2.0236830000     1.8863780000
 1392      H     -15.6617590000    -4.6616990000     2.7584880000
 1393      H     -21.7882570000    -1.6077850000    -3.5361560000
 1394      H     -24.7834940000     1.9830590000    -4.5452640000
 1395      H     -26.2009860000     1.0472300000    -2.5099210000
 1396      H     -23.1330630000    -1.8282280000    -1.2505540000
 1397      H     -21.6460070000     8.4629560000    -3.7221800000
 1398      H     -22.7783240000     7.3306950000    -1.6093530000
 1399      H     -24.4658800000     3.5715120000     0.2954420000
 1400      H     -21.7097340000     0.1125100000     0.9729690000
 1401      H     -12.1425040000    -6.7366730000    -4.6920060000
 1402      H     -15.6724110000    -3.5811630000    -5.2232450000
 1403      H      -2.2117420000    10.7080420000   -15.4594760000
 1404      H      -3.0562470000     8.9251140000   -17.2449630000
 1405      H      -0.1645340000     6.2870980000   -16.3728530000
 1406      H     -13.1725560000    15.8659210000   -17.3833360000
 1407      H     -10.7031940000    11.9964140000   -21.6419890000
 1408      H      -9.5064970000     8.0888070000   -18.8105690000
 1409      H     -12.6131810000    10.1556940000   -21.7037430000
 1410      H     -14.8547310000    11.0593730000   -18.7825240000
 1411      H     -12.0688420000     8.3334830000   -18.1672760000
 1412      H      -8.9673980000    14.5199920000   -18.8364640000
 1413      H      -6.2119430000    11.0616950000   -18.1591000000
 1414      H      -6.2779320000     3.1291200000   -16.4395660000
 1415      H      -2.8750120000     0.5172970000   -15.5351060000
 1416      H     -15.0509610000    13.1503780000   -20.4390260000
 1417      H       0.7765450000    -1.4173350000    15.5707240000
 1418      H      -1.6117590000     0.7905170000    15.1361830000
 1419      H       8.8504970000    -2.3729220000    15.1444700000
 1420      H      -5.4282520000    11.3636340000    11.4398830000
 1421      H       1.8925140000     6.8852180000    11.0186810000
 1422      H      -4.6365470000    26.0970510000    -2.2523340000
 1423      H     -12.3852190000    20.6227560000     7.3140330000
 1424      H     -14.6796520000    16.7350430000    12.2661470000
 1425      H      -5.0969760000     7.8276270000   -18.0696980000
 1426      H      -1.5497100000     4.4098050000   -17.1313570000
 1427      H      16.7028500000    -0.8318900000    -3.0171240000
 1428      H      13.3733690000    -5.8020980000    -8.5481420000
 1429      H      11.7901390000    -8.1339050000   -11.2511350000
 1430      H       7.3482170000     8.4733770000     6.4050320000
 1431      H       2.3208690000    16.8385230000     1.8741820000
 1432      H      16.5996180000     3.1019680000     5.5787680000
 1433      H      11.4802410000     1.8632830000     9.7179450000
 1434      H       9.6416350000    12.3601080000     1.4529800000
 1435      H      -2.7979420000    15.6002260000     6.0126310000
 1436      H       9.1817720000    -5.9089280000   -14.3651110000
 1437      H       4.9799180000   -14.8016400000    -3.8610690000
 1438      H       1.4331010000   -11.3832230000    -4.7987440000
 1439      H      -9.2978150000    -1.0641030000    -7.5657170000
 1440      H     -12.8450810000     2.3537200000    -8.5040580000
 1441      H      -6.9305320000    22.2099320000     2.7004460000
 ----------------------------------------------------------------
 Nuclear Repulsion Energy =     2633154.76967136 hartrees
 There are      295 alpha and      295 beta electrons
 Total job time:  304.61s(wall), 7735.59s(cpu) 
 Sun Oct 17 19:38:36 2021

        *************************************************************
        *                                                           *
        *  Thank you very much for using Q-Chem.  Have a nice day.  *
        *                                                           *
        *************************************************************


