
Running Job 1 of 1 MEOH-MFI.freq.in
qchem MEOH-MFI.freq.in_40335.0 /scr/lance/166669/qchem40335/ 0
/home/mgcf/software-ws/qchem/qchem_541/exe/qcprog.exe_s MEOH-MFI.freq.in_40335.0 /scr/lance/166669/qchem40335/
                  Welcome to Q-Chem
     A Quantum Leap Into The Future Of Chemistry


 Q-Chem 5.4, Q-Chem, Inc., Pleasanton, CA (2021)

 E. Epifanovsky,  A. T. B. Gilbert,  Xintian Feng,  Joonho Lee,  Yuezhi Mao,  
 N. Mardirossian,  P. Pokhilko,  A. White,  M. Wormit,  M. P. Coons,  
 A. L. Dempwolff,  Zhengting Gan,  D. Hait,  P. R. Horn,  L. D. Jacobson,  
 I. Kaliman,  J. Kussmann,  A. W. Lange,  Ka Un Lao,  D. S. Levine,  Jie Liu,  
 S. C. McKenzie,  A. F. Morrison,  K. Nanda,  F. Plasser,  D. R. Rehn,  
 M. L. Vidal,  Zhi-Qiang You,  Ying Zhu,  B. Alam,  B. Albrecht,  
 A. Aldossary,  E. Alguire,  J. H. Andersen,  D. Barton,  K. Begam,  A. Behn,  
 Y. A. Bernard,  E. J. Berquist,  H. Burton,  A. Carreras,  K. Carter-Fenk,  
 R. Chakraborty,  A. D. Chien,  K. D. Closser,  V. Cofer-Shabica,  
 S. Dasgupta,  Jia Deng,  M. de Wergifosse,  M. Diedenhofen,  Hainam Do,  
 S. Ehlert,  Po-Tung Fang,  S. Fatehi,  Qingguo Feng,  T. Friedhoff,  
 J. Gayvert,  Qinghui Ge,  G. Gidofalvi,  M. Goldey,  J. Gomes,  
 C. Gonzalez-Espinoza,  S. Gulania,  A. Gunina,  M. W. D. Hanson-Heine,  
 P. H. P. Harbach,  A. W. Hauser,  M. F. Herbst,  M. Hernandez Vera,  
 M. Hodecker,  Z. C. Holden,  S. Houck,  Xunkun Huang,  Kerwin Hui,  
 B. C. Huynh,  M. Ivanov,  Hyunjun Ji,  Hanjie Jiang,  B. Kaduk,  S. Kaehler,  
 K. Khistyaev,  Jaehoon Kim,  P. Klunzinger,  Z. Koczor-Benda,  
 Joong Hoon Koh,  D. Kosenkov,  L. Koulias,  T. Kowalczyk,  C. M. Krauter,  
 K. Kue,  A. Kunitsa,  T. Kus,  A. Landau,  K. V. Lawler,  D. Lefrancois,  
 S. Lehtola,  Rain Li,  Yi-Pei Li,  Jiashu Liang,  M. Liebenthal,  
 Hung-Hsuan Lin,  You-Sheng Lin,  Fenglai Liu,  Kuan-Yu Liu,  
 M. Loipersberger,  A. Luenser,  A. Manjanath,  P. Manohar,  E. Mansoor,  
 S. F. Manzer,  Shan-Ping Mao,  A. V. Marenich,  T. Markovich,  S. Mason,  
 S. A. Maurer,  P. F. McLaughlin,  M. F. S. J. Menger,  J.-M. Mewes,  
 S. A. Mewes,  P. Morgante,  J. W. Mullinax,  K. J. Oosterbaan,  G. Paran,  
 Alexander C. Paul,  Suranjan K. Paul,  F. Pavosevic,  Zheng Pei,  S. Prager,  
 E. I. Proynov,  E. Ramos,  B. Rana,  A. E. Rask,  A. Rettig,  R. M. Richard,  
 F. Rob,  E. Rossomme,  T. Scheele,  M. Scheurer,  M. Schneider,  
 N. Sergueev,  S. M. Sharada,  W. Skomorowski,  D. W. Small,  C. J. Stein,  
 Yu-Chuan Su,  E. J. Sundstrom,  Zhen Tao,  J. Thirman,  T. Tsuchimochi,  
 N. M. Tubman,  S. P. Veccham,  O. Vydrov,  J. Wenzel,  J. Witte,  A. Yamada,  
 Kun Yao,  S. Yeganeh,  S. R. Yost,  A. Zech,  Igor Ying Zhang,  Xing Zhang,  
 Yu Zhang,  D. Zuev,  A. Aspuru-Guzik,  A. T. Bell,  N. A. Besley,  
 K. B. Bravaya,  B. R. Brooks,  D. Casanova,  Jeng-Da Chai,  S. Coriani,  
 C. J. Cramer,  A. E. DePrince, III,  R. A. DiStasio Jr.,  A. Dreuw,  
 B. D. Dunietz,  T. R. Furlani,  W. A. Goddard III,  S. Grimme,  
 S. Hammes-Schiffer,  T. Head-Gordon,  W. J. Hehre,  Chao-Ping Hsu,  
 T.-C. Jagau,  Yousung Jung,  A. Klamt,  Jing Kong,  D. S. Lambrecht,  
 WanZhen Liang,  N. J. Mayhall,  C. W. McCurdy,  J. B. Neaton,  
 C. Ochsenfeld,  J. A. Parkhill,  R. Peverati,  V. A. Rassolov,  Yihan Shao,  
 L. V. Slipchenko,  T. Stauch,  R. P. Steele,  J. E. Subotnik,  
 A. J. W. Thom,  A. Tkatchenko,  D. G. Truhlar,  T. Van Voorhis,  
 T. A. Wesolowski,  K. B. Whaley,  H. L. Woodcock III,  P. M. Zimmerman,  
 S. Faraji,  P. M. W. Gill,  M. Head-Gordon,  J. M. Herbert,  A. I. Krylov

 Additional authors for Version 5.4.1: 
 S. Kotaru,  Shaozhi Li,  Xiangyuan Li,  F. Matz,  A. Molle,  Haisheng Ren,  
 Yingli Su,  Hung-Yi Tsai,  C. Utku,  Fang Wang

 Contributors to earlier versions of Q-Chem not listed above: 
 R. D. Adamson,  B. Austin,  R. Baer,  J. Baker,  G. J. O. Beran,  
 K. Brandhorst,  S. T. Brown,  E. F. C. Byrd,  A. K. Chakraborty,  
 G. K. L. Chan,  Chun-Min Chang,  Yunqing Chen,  C.-L. Cheng,  
 Siu Hung Chien,  D. M. Chipman,  D. L. Crittenden,  H. Dachsel,  
 R. J. Doerksen,  A. D. Dutoi,  R. G. Edgar,  J. Fosso-Tande,  
 L. Fusti-Molnar,  D. Ghosh,  A. Ghysels,  A. Golubeva-Zadorozhnaya,  
 J. Gonthier,  M. S. Gordon,  S. R. Gwaltney,  G. Hawkins,  J. E. Herr,  
 A. Heyden,  S. Hirata,  E. G. Hohenstein,  G. Kedziora,  F. J. Keil,  
 C. Kelley,  Jihan Kim,  R. A. King,  R. Z. Khaliullin,  P. P. Korambath,  
 W. Kurlancheek,  A. Laurent,  A. M. Lee,  M. S. Lee,  S. V. Levchenko,  
 Ching Yeh Lin,  D. Liotard,  E. Livshits,  R. C. Lochan,  I. Lotan,  
 L. A. Martinez-Martinez,  P. E. Maslen,  N. Nair,  D. P. O'Neill,  
 D. Neuhauser,  E. Neuscamman,  C. M. Oana,  R. Olivares-Amaya,  R. Olson,  
 T. M. Perrine,  B. Peters,  P. A. Pieniazek,  A. Prociuk,  Y. M. Rhee,  
 J. Ritchie,  M. A. Rohrdanz,  E. Rosta,  N. J. Russ,  H. F. Schaefer III,  
 M. W. Schmidt,  N. E. Schultz,  S. Sharma,  N. Shenvi,  C. D. Sherrill,  
 A. C. Simmonett,  A. Sodt,  T. Stein,  D. Stuck,  K. S. Thanthiriwatte,  
 V. Vanovschi,  L. Vogt,  Tao Wang,  A. Warshel,  M. A. Watson,  
 C. F. Williams,  Q. Wu,  X. Xu,  Jun Yang,  W. Zhang,  Yan Zhao

 Please cite Q-Chem as follows:
 Y. Shao et al., Mol. Phys. 113, 184-215 (2015)
 DOI: 10.1080/00268976.2014.952696

 Q-Chem 5.4.1 for Intel X86 EM64T Linux

 Parts of Q-Chem use Armadillo 9.800.1 (Horizon Scraper).
 http://arma.sourceforge.net/

 Q-Chem begins on Mon Oct  4 10:00:17 2021  

 Host: 
0

     Scratch files written to /scr/lance/166669/qchem40335//
 Aug1521 |scratch|qcdevops|jenkins|workspace|build_RNUM -1
 Processing $rem in /home/mgcf/software-ws/qchem/qchem_541/config/preferences:
 Processing $rem in /home/lance/.qchemrc:
Applying user defined connections for MM calculations

 Checking the input file for inconsistencies... 	...done.

--------------------------------------------------------------
User input:
--------------------------------------------------------------
$rem
jobtype		freq
gui     	2
!vibman_print	4
max_scf_cycles  500
geom_opt_max_cycles 999
exchange 	omegab97x-d
basis def2-svp
!basis		6-311+G(3df,3pd)
scf_algorithm 	rca_diis
QM_MM_INTERFACE Zeolite
force_field   	charmm27
user_connect   	true
symmetry  	 off
sym_ignore   	true
print_input   	true
qmmm_print   	false
qm_mm   	true
model_system_mult 1
qmmm_full_hessian 	false
mem_total   80000
mem_static   4500
pop_mulliken 	false
!nbo	true
isotopes true
$end

$qm_atoms
1
2
3
4
5
6
7
8
9
10
11
12
13
14
15
16
17
18
19
20
21
22
23
24
25
26
27
28
29
30
31
32
33
34
35
36
37
38
39
40
41
42
43
44
45
46
47
48
49
50
51
52
53
54
55
56
57
$end

$isotopes
1 0
32
58 100000000000000000
59 100000000000000000
60 100000000000000000
61 100000000000000000
62 100000000000000000
63 100000000000000000
64 100000000000000000
65 100000000000000000
66 100000000000000000
67 100000000000000000
68 100000000000000000
69 100000000000000000
70 100000000000000000
71 100000000000000000
72 100000000000000000
73 100000000000000000
74 100000000000000000
75 100000000000000000
76 100000000000000000
77 100000000000000000
78 100000000000000000
79 100000000000000000
80 100000000000000000
81 100000000000000000
82 100000000000000000
83 100000000000000000
84 100000000000000000
85 100000000000000000
86 100000000000000000
87 100000000000000000
88 100000000000000000
89 100000000000000000
$end

$comment
Atom   type   and   names
-1   Oxygen   in   SiO4
-2   Silicon   in   SiO4
-3   H for terminal in SiO4
-23  Si right out of T5 and has one connections to QM
-22  Si right out of T5 and has two connections to QM
-21  Si right out of T5 and has three connections to QM
$end


$force_field_params
NumAtomTypes   3000
AtomType   -1   -0.35   1.77   -0.018
AtomType   -13   -0.35   1.77   -0.018
AtomType   -2   0.7   2.2   -0.047
AtomType   -3   -0.175   0.01   0
AtomType   -4    0.175   0.01   0
AtomType   -23   0.525   2.2   -0.047
AtomType   -22   0.35   2.2   -0.047
AtomType   -21   0.175   2.2   -0.047
AtomType   -111   0   1.34   -0.024
AtomType   -112   0   1.34   -0.035
AtomType   -121   0   2.05   -0.078
AtomType   -122   0   2.01   -0.056
AtomType   -912   0   2.175   -0.055
AtomType   -916   0   1.77   -0.1521
AtomType   -901   0   1.32   -0.022
AtomType   -801   0   0.2245   -0.046
AtomType    -31 0   1.9924  -0.07
AtomType    -32 0   2.09    -0.068
AtomType    -33 0   2.08    -0.064
AtomType    -34 0   1.87    -0.18
AtomType    -35 0   2.00    -0.032
AtomType    -41 0   0.2245  -0.046
AtomType    -42 0   0.87    -0.012
AtomType    -43 0   1.1 -0.046
AtomType    -44 0   1.3582  -0.03
AtomType    -45 0   1.26    -0.026
AtomType    -46 0   1.25    -0.031
AtomType    -47 0   1.34    -0.045
AtomType    -51 0   1.765   -0.1921
AtomType    -61 0   1.98    -0.07
AtomType    -62 0   1.89    -0.06
AtomType    -63 0   1.79    -0.18
Bond   -1   -2   304   1.682
Bond   -1   -3   204   1.489
Bond   -2   -3   100   1.45
Angle   -1   -2   -1   34   150
Angle   -2   -1   -2   30   121.5
Angle   -3   -1   -2   44   118
Angle   -1   -2   -3   30   109.5
Torsion   -2   -1   -2   -1   0.1   120   3
Torsion   -2   -1   -2   -3   0.3   120   3
Bond   -121   -122   222.5   1.528
Bond   -121   -121   222.5   1.528
Bond   -122   -122   222.5   1.528
Bond   -111   -121   309   1.089
Bond   -112   -122   309   1.089
Angle   -121   -122   -122   58   115
Angle   -121   -121   -122   58   115
Angle   -121   -121   -121   58   115
Angle   -122   -122   -122   58   115
Angle   -111   -121   -111   35.5   108.4
Angle   -111   -121   -121   35.5   108.4
Angle   -111   -121   -122   35.5   108.4
Angle   -112   -122   -112   35.5   108.4
Angle   -112   -122   -121   35.5   108.4
Angle   -112   -122   -122   35.5   108.4
Torsion   -111   -121   -122   -122   0.16   120   3
Torsion   -111   -121   -121   -121   0.16   120   3
Torsion   -111   -121   -121   -111   0.16   120   3
Torsion   -111   -121   -122   -112   0.16   120   3
Torsion   -112   -122   -122   -122   95.16   180   2
Torsion   -112   -122   -122   -112   95.16   180   2
Torsion   -121   -122   -122   -122   95.16   180   2
Torsion   -121   -122   -122   -112   95.16   180   2
Torsion   -122   -122   -122   -112   95.16   180   2
Torsion   -112   -122   -122   -121   95.16   180   2
Bond   -13   -1   304   1.682
Bond   -13   -121   222.5   1.55
Angle   -13   -121   -121   40   111
Angle   -13   -121   -1   34   150
Angle   -13   -121   -111   35.5   115
Torsion   -1   -13   -121   -121   0.2   120   3
Torsion   -1   -13   -121   -111   0.2   120   3
Bond   -901   -912   342.991   1.093
Bond   -801   -916   560.905   0.972
Bond   -916   -912   363.214   1.418
Bond   -912   -912   306.432   1.508
Angle   -916   -912   -912   71.39   108.133
Angle   -916   -912   -916   83.192   111.368
Angle   -916   -912   -901   56.205   108.577
Angle   -912   -912   -901   45.77   110.549
Angle   -912   -916   -912   86.143   106.926
Angle   -912   -912   -912   61.243   109.608
Angle   -912   -916   -801   57.069   106.503
Angle   -901   -912   -901   37.134   108.836
Torsion   -912   -916   -912   -912   -0.341   0   1
Torsion   -912   -916   -912   -912   0.378   180   2
Torsion   -912   -916   -912   -912   0.378   0   3
Torsion   -912   -916   -912   -901   0.285   0   1
Torsion   -912   -916   -912   -901   0.16   180   2
Torsion   -912   -916   -912   -901   0.285   0   3
Torsion   -912   -912   -912   -912   0.051   0   1
Torsion   -912   -912   -912   -912   0.341   180   2
Torsion   -912   -912   -912   -912   0.166   0   3
Torsion   -912   -912   -912   -916   -0.344   0   1
Torsion   -912   -912   -912   -916   0.878   180   2
Torsion   -912   -912   -912   -916   0.238   0   3
Torsion   -912   -912   -912   -901   0.32   0   1
Torsion   -912   -912   -912   -901   -0.315   180   2
Torsion   -912   -912   -912   -901   0.132   0   3
Torsion   -912   -912   -916   -801   0.135   180   2
Torsion   -912   -912   -916   -801   0.118   0   3
Torsion   -916   -912   -912   -916   0.204   0   1
Torsion   -916   -912   -912   -916   0.699   180   2
Torsion   -916   -912   -912   -916   0.48   0   3
Torsion   -916   -912   -912   -901   -0.327   0   1
Torsion   -916   -912   -912   -901   0.536   180   2
Torsion   -916   -912   -912   -901   0.14   0   3
Torsion   -916   -912   -916   -801   0.744   0   1
Torsion   -916   -912   -916   -801   -1.7   180   2
Torsion   -916   -912   -916   -801   -0.16   0   3
Torsion   -912   -916   -912   -916   0.115   0   1
Torsion   -912   -916   -912   -916   -0.355   180   2
Torsion   -912   -916   -912   -916   0.361   0   3
Torsion   -901   -912   -912   -901   0.142   0   1
Torsion   -901   -912   -912   -901   -0.693   180   2
Torsion   -901   -912   -912   -901   0.157   0   3
Torsion   -901   -912   -916   -801   0.298   0   1
Torsion   -901   -912   -916   -801   -0.138   180   2
Torsion   -901   -912   -916   -801   0.173   0   3
Imptor	-912   -912   -916   -916       0.000  0     0.00
Imptor	-912   -916   -916   -901     0.000  0     0.00
Imptor	-912   -912   -916   -912       0.000  0     0.00
Imptor	-912   -912   -916   -901     0.000  0     0.00
Imptor	-912   -912   -912   -916       0.000  0     0.00
Imptor	-912   -912   -912   -901     0.000  0     0.00
Imptor	-912   -916   -912   -901     0.000  0     0.00
$end

$opt
fixed
58 XYZ
59 XYZ
60 XYZ
61 XYZ
62 XYZ
63 XYZ
64 XYZ
65 XYZ
66 XYZ
67 XYZ
68 XYZ
69 XYZ
70 XYZ
71 XYZ
72 XYZ
73 XYZ
74 XYZ
75 XYZ
76 XYZ
77 XYZ
78 XYZ
79 XYZ
80 XYZ
81 XYZ
82 XYZ
83 XYZ
84 XYZ
85 XYZ
86 XYZ
87 XYZ
88 XYZ
89 XYZ
90 XYZ
91 XYZ
92 XYZ
93 XYZ
94 XYZ
95 XYZ
96 XYZ
97 XYZ
98 XYZ
99 XYZ
100 XYZ
101 XYZ
102 XYZ
103 XYZ
104 XYZ
105 XYZ
106 XYZ
107 XYZ
108 XYZ
109 XYZ
110 XYZ
111 XYZ
112 XYZ
113 XYZ
114 XYZ
115 XYZ
116 XYZ
117 XYZ
118 XYZ
119 XYZ
120 XYZ
121 XYZ
122 XYZ
123 XYZ
124 XYZ
125 XYZ
126 XYZ
127 XYZ
128 XYZ
129 XYZ
130 XYZ
131 XYZ
132 XYZ
133 XYZ
134 XYZ
135 XYZ
136 XYZ
137 XYZ
138 XYZ
139 XYZ
140 XYZ
141 XYZ
142 XYZ
143 XYZ
144 XYZ
145 XYZ
146 XYZ
147 XYZ
148 XYZ
149 XYZ
150 XYZ
151 XYZ
152 XYZ
153 XYZ
154 XYZ
155 XYZ
156 XYZ
157 XYZ
158 XYZ
159 XYZ
160 XYZ
161 XYZ
162 XYZ
163 XYZ
164 XYZ
165 XYZ
166 XYZ
167 XYZ
168 XYZ
169 XYZ
170 XYZ
171 XYZ
172 XYZ
173 XYZ
174 XYZ
175 XYZ
176 XYZ
177 XYZ
178 XYZ
179 XYZ
180 XYZ
181 XYZ
182 XYZ
183 XYZ
184 XYZ
185 XYZ
186 XYZ
187 XYZ
188 XYZ
189 XYZ
190 XYZ
191 XYZ
192 XYZ
193 XYZ
194 XYZ
195 XYZ
196 XYZ
197 XYZ
198 XYZ
199 XYZ
200 XYZ
201 XYZ
202 XYZ
203 XYZ
204 XYZ
205 XYZ
206 XYZ
207 XYZ
208 XYZ
209 XYZ
210 XYZ
211 XYZ
212 XYZ
213 XYZ
214 XYZ
215 XYZ
216 XYZ
217 XYZ
218 XYZ
219 XYZ
220 XYZ
221 XYZ
222 XYZ
223 XYZ
224 XYZ
225 XYZ
226 XYZ
227 XYZ
228 XYZ
229 XYZ
230 XYZ
231 XYZ
232 XYZ
233 XYZ
234 XYZ
235 XYZ
236 XYZ
237 XYZ
238 XYZ
239 XYZ
240 XYZ
241 XYZ
242 XYZ
243 XYZ
244 XYZ
245 XYZ
246 XYZ
247 XYZ
248 XYZ
249 XYZ
250 XYZ
251 XYZ
252 XYZ
253 XYZ
254 XYZ
255 XYZ
256 XYZ
257 XYZ
258 XYZ
259 XYZ
260 XYZ
261 XYZ
262 XYZ
263 XYZ
264 XYZ
265 XYZ
266 XYZ
267 XYZ
268 XYZ
269 XYZ
270 XYZ
271 XYZ
272 XYZ
273 XYZ
274 XYZ
275 XYZ
276 XYZ
277 XYZ
278 XYZ
279 XYZ
280 XYZ
281 XYZ
282 XYZ
283 XYZ
284 XYZ
285 XYZ
286 XYZ
287 XYZ
288 XYZ
289 XYZ
290 XYZ
291 XYZ
292 XYZ
293 XYZ
294 XYZ
295 XYZ
296 XYZ
297 XYZ
298 XYZ
299 XYZ
300 XYZ
301 XYZ
302 XYZ
303 XYZ
304 XYZ
305 XYZ
306 XYZ
307 XYZ
308 XYZ
309 XYZ
310 XYZ
311 XYZ
312 XYZ
313 XYZ
314 XYZ
315 XYZ
316 XYZ
317 XYZ
318 XYZ
319 XYZ
320 XYZ
321 XYZ
322 XYZ
323 XYZ
324 XYZ
325 XYZ
326 XYZ
327 XYZ
328 XYZ
329 XYZ
330 XYZ
331 XYZ
332 XYZ
333 XYZ
334 XYZ
335 XYZ
336 XYZ
337 XYZ
338 XYZ
339 XYZ
340 XYZ
341 XYZ
342 XYZ
343 XYZ
344 XYZ
345 XYZ
346 XYZ
347 XYZ
348 XYZ
349 XYZ
350 XYZ
351 XYZ
352 XYZ
353 XYZ
354 XYZ
355 XYZ
356 XYZ
357 XYZ
358 XYZ
359 XYZ
360 XYZ
361 XYZ
362 XYZ
363 XYZ
364 XYZ
365 XYZ
366 XYZ
367 XYZ
368 XYZ
369 XYZ
370 XYZ
371 XYZ
372 XYZ
373 XYZ
374 XYZ
375 XYZ
376 XYZ
377 XYZ
378 XYZ
379 XYZ
380 XYZ
381 XYZ
382 XYZ
383 XYZ
384 XYZ
385 XYZ
386 XYZ
387 XYZ
388 XYZ
389 XYZ
390 XYZ
391 XYZ
392 XYZ
393 XYZ
394 XYZ
395 XYZ
396 XYZ
397 XYZ
398 XYZ
399 XYZ
400 XYZ
401 XYZ
402 XYZ
403 XYZ
404 XYZ
405 XYZ
406 XYZ
407 XYZ
408 XYZ
409 XYZ
410 XYZ
411 XYZ
412 XYZ
413 XYZ
414 XYZ
415 XYZ
416 XYZ
417 XYZ
418 XYZ
419 XYZ
420 XYZ
421 XYZ
422 XYZ
423 XYZ
424 XYZ
425 XYZ
426 XYZ
427 XYZ
428 XYZ
429 XYZ
430 XYZ
431 XYZ
432 XYZ
433 XYZ
434 XYZ
435 XYZ
436 XYZ
437 XYZ
438 XYZ
439 XYZ
440 XYZ
441 XYZ
442 XYZ
443 XYZ
444 XYZ
445 XYZ
446 XYZ
447 XYZ
448 XYZ
449 XYZ
450 XYZ
451 XYZ
452 XYZ
453 XYZ
454 XYZ
455 XYZ
456 XYZ
457 XYZ
458 XYZ
459 XYZ
460 XYZ
461 XYZ
462 XYZ
463 XYZ
464 XYZ
465 XYZ
466 XYZ
467 XYZ
468 XYZ
469 XYZ
470 XYZ
471 XYZ
472 XYZ
473 XYZ
474 XYZ
475 XYZ
476 XYZ
477 XYZ
478 XYZ
479 XYZ
480 XYZ
481 XYZ
482 XYZ
483 XYZ
484 XYZ
485 XYZ
486 XYZ
487 XYZ
488 XYZ
489 XYZ
490 XYZ
491 XYZ
492 XYZ
493 XYZ
494 XYZ
495 XYZ
496 XYZ
497 XYZ
498 XYZ
499 XYZ
500 XYZ
501 XYZ
502 XYZ
503 XYZ
504 XYZ
505 XYZ
506 XYZ
507 XYZ
508 XYZ
509 XYZ
510 XYZ
511 XYZ
512 XYZ
513 XYZ
514 XYZ
515 XYZ
516 XYZ
517 XYZ
518 XYZ
519 XYZ
520 XYZ
521 XYZ
522 XYZ
523 XYZ
524 XYZ
525 XYZ
526 XYZ
527 XYZ
528 XYZ
529 XYZ
530 XYZ
531 XYZ
532 XYZ
533 XYZ
534 XYZ
535 XYZ
536 XYZ
537 XYZ
538 XYZ
539 XYZ
540 XYZ
541 XYZ
542 XYZ
543 XYZ
544 XYZ
545 XYZ
546 XYZ
547 XYZ
548 XYZ
549 XYZ
550 XYZ
551 XYZ
552 XYZ
553 XYZ
554 XYZ
555 XYZ
556 XYZ
557 XYZ
558 XYZ
559 XYZ
560 XYZ
561 XYZ
562 XYZ
563 XYZ
564 XYZ
565 XYZ
566 XYZ
567 XYZ
568 XYZ
569 XYZ
570 XYZ
571 XYZ
572 XYZ
573 XYZ
574 XYZ
575 XYZ
576 XYZ
577 XYZ
578 XYZ
579 XYZ
580 XYZ
581 XYZ
582 XYZ
583 XYZ
584 XYZ
585 XYZ
586 XYZ
587 XYZ
588 XYZ
589 XYZ
590 XYZ
591 XYZ
592 XYZ
593 XYZ
594 XYZ
595 XYZ
596 XYZ
597 XYZ
598 XYZ
599 XYZ
600 XYZ
601 XYZ
602 XYZ
603 XYZ
604 XYZ
605 XYZ
606 XYZ
607 XYZ
608 XYZ
609 XYZ
610 XYZ
611 XYZ
612 XYZ
613 XYZ
614 XYZ
615 XYZ
616 XYZ
617 XYZ
618 XYZ
619 XYZ
620 XYZ
621 XYZ
622 XYZ
623 XYZ
624 XYZ
625 XYZ
626 XYZ
627 XYZ
628 XYZ
629 XYZ
630 XYZ
631 XYZ
632 XYZ
633 XYZ
634 XYZ
635 XYZ
636 XYZ
637 XYZ
638 XYZ
639 XYZ
640 XYZ
641 XYZ
642 XYZ
643 XYZ
644 XYZ
645 XYZ
646 XYZ
647 XYZ
648 XYZ
649 XYZ
650 XYZ
651 XYZ
652 XYZ
653 XYZ
654 XYZ
655 XYZ
656 XYZ
657 XYZ
658 XYZ
659 XYZ
660 XYZ
661 XYZ
662 XYZ
663 XYZ
664 XYZ
665 XYZ
666 XYZ
667 XYZ
668 XYZ
669 XYZ
670 XYZ
671 XYZ
672 XYZ
673 XYZ
674 XYZ
675 XYZ
676 XYZ
677 XYZ
678 XYZ
679 XYZ
680 XYZ
681 XYZ
682 XYZ
683 XYZ
684 XYZ
685 XYZ
686 XYZ
687 XYZ
688 XYZ
689 XYZ
690 XYZ
691 XYZ
692 XYZ
693 XYZ
694 XYZ
695 XYZ
696 XYZ
697 XYZ
698 XYZ
699 XYZ
700 XYZ
701 XYZ
702 XYZ
703 XYZ
704 XYZ
705 XYZ
706 XYZ
707 XYZ
708 XYZ
709 XYZ
710 XYZ
711 XYZ
712 XYZ
713 XYZ
714 XYZ
715 XYZ
716 XYZ
717 XYZ
718 XYZ
719 XYZ
720 XYZ
721 XYZ
722 XYZ
723 XYZ
724 XYZ
725 XYZ
726 XYZ
727 XYZ
728 XYZ
729 XYZ
730 XYZ
731 XYZ
732 XYZ
733 XYZ
734 XYZ
735 XYZ
736 XYZ
737 XYZ
738 XYZ
739 XYZ
740 XYZ
741 XYZ
742 XYZ
743 XYZ
744 XYZ
745 XYZ
746 XYZ
747 XYZ
748 XYZ
749 XYZ
750 XYZ
751 XYZ
752 XYZ
753 XYZ
754 XYZ
755 XYZ
756 XYZ
757 XYZ
758 XYZ
759 XYZ
760 XYZ
761 XYZ
762 XYZ
763 XYZ
764 XYZ
765 XYZ
766 XYZ
767 XYZ
768 XYZ
769 XYZ
770 XYZ
771 XYZ
772 XYZ
773 XYZ
774 XYZ
775 XYZ
776 XYZ
777 XYZ
778 XYZ
779 XYZ
780 XYZ
781 XYZ
782 XYZ
783 XYZ
784 XYZ
785 XYZ
786 XYZ
787 XYZ
788 XYZ
789 XYZ
790 XYZ
791 XYZ
792 XYZ
793 XYZ
794 XYZ
795 XYZ
796 XYZ
797 XYZ
798 XYZ
799 XYZ
800 XYZ
801 XYZ
802 XYZ
803 XYZ
804 XYZ
805 XYZ
806 XYZ
807 XYZ
808 XYZ
809 XYZ
810 XYZ
811 XYZ
812 XYZ
813 XYZ
814 XYZ
815 XYZ
816 XYZ
817 XYZ
818 XYZ
819 XYZ
820 XYZ
821 XYZ
822 XYZ
823 XYZ
824 XYZ
825 XYZ
826 XYZ
827 XYZ
828 XYZ
829 XYZ
830 XYZ
831 XYZ
832 XYZ
833 XYZ
834 XYZ
835 XYZ
836 XYZ
837 XYZ
838 XYZ
839 XYZ
840 XYZ
841 XYZ
842 XYZ
843 XYZ
844 XYZ
845 XYZ
846 XYZ
847 XYZ
848 XYZ
849 XYZ
850 XYZ
851 XYZ
852 XYZ
853 XYZ
854 XYZ
855 XYZ
856 XYZ
857 XYZ
858 XYZ
859 XYZ
860 XYZ
861 XYZ
862 XYZ
863 XYZ
864 XYZ
865 XYZ
866 XYZ
867 XYZ
868 XYZ
869 XYZ
870 XYZ
871 XYZ
872 XYZ
873 XYZ
874 XYZ
875 XYZ
876 XYZ
877 XYZ
878 XYZ
879 XYZ
880 XYZ
881 XYZ
882 XYZ
883 XYZ
884 XYZ
885 XYZ
886 XYZ
887 XYZ
888 XYZ
889 XYZ
890 XYZ
891 XYZ
892 XYZ
893 XYZ
894 XYZ
895 XYZ
896 XYZ
897 XYZ
898 XYZ
899 XYZ
900 XYZ
901 XYZ
902 XYZ
903 XYZ
904 XYZ
905 XYZ
906 XYZ
907 XYZ
908 XYZ
909 XYZ
910 XYZ
911 XYZ
912 XYZ
913 XYZ
914 XYZ
915 XYZ
916 XYZ
917 XYZ
918 XYZ
919 XYZ
920 XYZ
921 XYZ
922 XYZ
923 XYZ
924 XYZ
925 XYZ
926 XYZ
927 XYZ
928 XYZ
929 XYZ
930 XYZ
931 XYZ
932 XYZ
933 XYZ
934 XYZ
935 XYZ
936 XYZ
937 XYZ
938 XYZ
939 XYZ
940 XYZ
941 XYZ
942 XYZ
943 XYZ
944 XYZ
945 XYZ
946 XYZ
947 XYZ
948 XYZ
949 XYZ
950 XYZ
951 XYZ
952 XYZ
953 XYZ
954 XYZ
955 XYZ
956 XYZ
957 XYZ
958 XYZ
959 XYZ
960 XYZ
961 XYZ
962 XYZ
963 XYZ
964 XYZ
965 XYZ
966 XYZ
967 XYZ
968 XYZ
969 XYZ
970 XYZ
971 XYZ
972 XYZ
973 XYZ
974 XYZ
975 XYZ
976 XYZ
977 XYZ
978 XYZ
979 XYZ
980 XYZ
981 XYZ
982 XYZ
983 XYZ
984 XYZ
985 XYZ
986 XYZ
987 XYZ
988 XYZ
989 XYZ
990 XYZ
991 XYZ
992 XYZ
993 XYZ
994 XYZ
995 XYZ
996 XYZ
997 XYZ
998 XYZ
999 XYZ
1000 XYZ
1001 XYZ
1002 XYZ
1003 XYZ
1004 XYZ
1005 XYZ
1006 XYZ
1007 XYZ
1008 XYZ
1009 XYZ
1010 XYZ
1011 XYZ
1012 XYZ
1013 XYZ
1014 XYZ
1015 XYZ
1016 XYZ
1017 XYZ
1018 XYZ
1019 XYZ
1020 XYZ
1021 XYZ
1022 XYZ
1023 XYZ
1024 XYZ
1025 XYZ
1026 XYZ
1027 XYZ
1028 XYZ
1029 XYZ
1030 XYZ
1031 XYZ
1032 XYZ
1033 XYZ
1034 XYZ
1035 XYZ
1036 XYZ
1037 XYZ
1038 XYZ
1039 XYZ
1040 XYZ
1041 XYZ
1042 XYZ
1043 XYZ
1044 XYZ
1045 XYZ
1046 XYZ
1047 XYZ
1048 XYZ
1049 XYZ
1050 XYZ
1051 XYZ
1052 XYZ
1053 XYZ
1054 XYZ
1055 XYZ
1056 XYZ
1057 XYZ
1058 XYZ
1059 XYZ
1060 XYZ
1061 XYZ
1062 XYZ
1063 XYZ
1064 XYZ
1065 XYZ
1066 XYZ
1067 XYZ
1068 XYZ
1069 XYZ
1070 XYZ
1071 XYZ
1072 XYZ
1073 XYZ
1074 XYZ
1075 XYZ
1076 XYZ
1077 XYZ
1078 XYZ
1079 XYZ
1080 XYZ
1081 XYZ
1082 XYZ
1083 XYZ
1084 XYZ
1085 XYZ
1086 XYZ
1087 XYZ
1088 XYZ
1089 XYZ
1090 XYZ
1091 XYZ
1092 XYZ
1093 XYZ
1094 XYZ
1095 XYZ
1096 XYZ
1097 XYZ
1098 XYZ
1099 XYZ
1100 XYZ
1101 XYZ
1102 XYZ
1103 XYZ
1104 XYZ
1105 XYZ
1106 XYZ
1107 XYZ
1108 XYZ
1109 XYZ
1110 XYZ
1111 XYZ
1112 XYZ
1113 XYZ
1114 XYZ
1115 XYZ
1116 XYZ
1117 XYZ
1118 XYZ
1119 XYZ
1120 XYZ
1121 XYZ
1122 XYZ
1123 XYZ
1124 XYZ
1125 XYZ
1126 XYZ
1127 XYZ
1128 XYZ
1129 XYZ
1130 XYZ
1131 XYZ
1132 XYZ
1133 XYZ
1134 XYZ
1135 XYZ
1136 XYZ
1137 XYZ
1138 XYZ
1139 XYZ
1140 XYZ
1141 XYZ
1142 XYZ
1143 XYZ
1144 XYZ
1145 XYZ
1146 XYZ
1147 XYZ
1148 XYZ
1149 XYZ
1150 XYZ
1151 XYZ
1152 XYZ
1153 XYZ
1154 XYZ
1155 XYZ
1156 XYZ
1157 XYZ
1158 XYZ
1159 XYZ
1160 XYZ
1161 XYZ
1162 XYZ
1163 XYZ
1164 XYZ
1165 XYZ
1166 XYZ
1167 XYZ
1168 XYZ
1169 XYZ
1170 XYZ
1171 XYZ
1172 XYZ
1173 XYZ
1174 XYZ
1175 XYZ
1176 XYZ
1177 XYZ
1178 XYZ
1179 XYZ
1180 XYZ
1181 XYZ
1182 XYZ
1183 XYZ
1184 XYZ
1185 XYZ
1186 XYZ
1187 XYZ
1188 XYZ
1189 XYZ
1190 XYZ
1191 XYZ
1192 XYZ
1193 XYZ
1194 XYZ
1195 XYZ
1196 XYZ
1197 XYZ
1198 XYZ
1199 XYZ
1200 XYZ
1201 XYZ
1202 XYZ
1203 XYZ
1204 XYZ
1205 XYZ
1206 XYZ
1207 XYZ
1208 XYZ
1209 XYZ
1210 XYZ
1211 XYZ
1212 XYZ
1213 XYZ
1214 XYZ
1215 XYZ
1216 XYZ
1217 XYZ
1218 XYZ
1219 XYZ
1220 XYZ
1221 XYZ
1222 XYZ
1223 XYZ
1224 XYZ
1225 XYZ
1226 XYZ
1227 XYZ
1228 XYZ
1229 XYZ
1230 XYZ
1231 XYZ
1232 XYZ
1233 XYZ
1234 XYZ
1235 XYZ
1236 XYZ
1237 XYZ
1238 XYZ
1239 XYZ
1240 XYZ
1241 XYZ
1242 XYZ
1243 XYZ
1244 XYZ
1245 XYZ
1246 XYZ
1247 XYZ
1248 XYZ
1249 XYZ
1250 XYZ
1251 XYZ
1252 XYZ
1253 XYZ
1254 XYZ
1255 XYZ
1256 XYZ
1257 XYZ
1258 XYZ
1259 XYZ
1260 XYZ
1261 XYZ
1262 XYZ
1263 XYZ
1264 XYZ
1265 XYZ
1266 XYZ
1267 XYZ
1268 XYZ
1269 XYZ
1270 XYZ
1271 XYZ
1272 XYZ
1273 XYZ
1274 XYZ
1275 XYZ
1276 XYZ
1277 XYZ
1278 XYZ
1279 XYZ
1280 XYZ
1281 XYZ
1282 XYZ
1283 XYZ
1284 XYZ
1285 XYZ
1286 XYZ
1287 XYZ
1288 XYZ
1289 XYZ
1290 XYZ
1291 XYZ
1292 XYZ
1293 XYZ
1294 XYZ
1295 XYZ
1296 XYZ
1297 XYZ
1298 XYZ
1299 XYZ
1300 XYZ
1301 XYZ
1302 XYZ
1303 XYZ
1304 XYZ
1305 XYZ
1306 XYZ
1307 XYZ
1308 XYZ
1309 XYZ
1310 XYZ
1311 XYZ
1312 XYZ
1313 XYZ
1314 XYZ
1315 XYZ
1316 XYZ
1317 XYZ
1318 XYZ
1319 XYZ
1320 XYZ
1321 XYZ
1322 XYZ
1323 XYZ
1324 XYZ
1325 XYZ
1326 XYZ
1327 XYZ
1328 XYZ
1329 XYZ
1330 XYZ
1331 XYZ
1332 XYZ
1333 XYZ
1334 XYZ
1335 XYZ
1336 XYZ
1337 XYZ
1338 XYZ
1339 XYZ
1340 XYZ
1341 XYZ
1342 XYZ
1343 XYZ
1344 XYZ
1345 XYZ
1346 XYZ
1347 XYZ
1348 XYZ
1349 XYZ
1350 XYZ
1351 XYZ
1352 XYZ
1353 XYZ
1354 XYZ
1355 XYZ
1356 XYZ
1357 XYZ
1358 XYZ
1359 XYZ
1360 XYZ
1361 XYZ
1362 XYZ
1363 XYZ
1364 XYZ
1365 XYZ
1366 XYZ
1367 XYZ
1368 XYZ
1369 XYZ
1370 XYZ
1371 XYZ
1372 XYZ
1373 XYZ
1374 XYZ
1375 XYZ
1376 XYZ
1377 XYZ
1378 XYZ
1379 XYZ
1380 XYZ
1381 XYZ
1382 XYZ
1383 XYZ
1384 XYZ
1385 XYZ
1386 XYZ
1387 XYZ
1388 XYZ
1389 XYZ
1390 XYZ
1391 XYZ
1392 XYZ
1393 XYZ
1394 XYZ
1395 XYZ
1396 XYZ
1397 XYZ
1398 XYZ
1399 XYZ
1400 XYZ
1401 XYZ
1402 XYZ
1403 XYZ
1404 XYZ
1405 XYZ
1406 XYZ
1407 XYZ
1408 XYZ
1409 XYZ
1410 XYZ
1411 XYZ
1412 XYZ
1413 XYZ
1414 XYZ
1415 XYZ
1416 XYZ
1417 XYZ
1418 XYZ
1419 XYZ
1420 XYZ
1421 XYZ
1422 XYZ
1423 XYZ
1424 XYZ
1425 XYZ
1426 XYZ
1427 XYZ
1428 XYZ
1429 XYZ
1430 XYZ
1431 XYZ
1432 XYZ
1433 XYZ
1434 XYZ
1435 XYZ
1436 XYZ
1437 XYZ
1438 XYZ
endfixed
$end

$molecule
0 1
H	 -1.103225	  0.624191	 -0.836426	  0	 3	 0	 0	 0
H	 -1.098637	  0.426021	  0.953358	  0	 3	 0	 0	 0
C	 -0.730226	  0.014887	  0.000684	  0	 1	 2	 4	 6
H	 -1.105799	 -1.005386	 -0.122749	  0	 3	 0	 0	 0
H	  1.090786	  0.810967	 -0.008839	  0	 6	 0	 0	 0
O	  0.687527	 -0.065091	  0.000410	  0	 3	 5	 0	 0
H	  1.564694	 -1.161719	 -0.571416	  0	 9	 0	 0	 0
Al	  1.549446	 -3.232419	 -1.911644	  0	 9	 10	 11	 12
O	  2.298578	 -1.789968	 -0.934827	  0	 13	 7	 8	 0
O	  1.804679	 -2.987012	 -3.590828	  0	 14	 8	 0	 0
O	  2.293539	 -4.679853	 -1.344449	  0	 15	 8	 0	 0
O	 -0.088010	 -3.036032	 -1.399569	  0	 16	 8	 0	 0
Si	  3.824977	 -1.117756	 -0.716970	  0	 9	 18	 19	 17
Si	  2.326041	 -3.814787	 -4.899641	  0	 58	 59	 60	 10
Si	  2.394592	 -6.047201	 -0.493551	  0	 11	 20	 61	 62
Si	 -1.534333	 -3.735412	 -1.428546	  0	 12	 21	 22	 63
O	  4.866424	 -2.153626	 -0.034577	  0	 13	 23	 0	 0
O	  3.540738	  0.182144	  0.216265	  0	 13	 24	 0	 0
O	  4.413630	 -0.653858	 -2.147366	  0	 25	 13	 0	 0
O	  2.475000	 -5.707309	  1.128020	  0	 26	 15	 0	 0
O	 -1.825460	 -4.443029	  0.037371	  0	 27	 16	 0	 0
O	 -2.676018	 -2.567350	 -1.668560	  0	 28	 16	 0	 0
Si	  5.696895	 -2.904052	  1.182510	  0	 17	 66	 67	 30
Si	  3.940262	  1.297851	  1.344029	  0	 33	 18	 68	 36
Si	  5.798835	 -0.671365	 -3.054410	  0	 19	 69	 70	 71
Si	  1.554439	 -5.372210	  2.424633	  0	 65	 20	 31	 32
Si	 -1.471016	 -5.029973	  1.525164	  0	 74	 75	 21	 32
Si	 -4.078539	 -2.003233	 -1.103536	  0	 89	 54	 22	 55
O	  3.260440	 -1.837707	  3.724573	  0	 34	 35	 0	 0
O	  4.635570	 -3.554417	  2.228408	  0	 34	 23	 0	 0
O	  2.338291	 -4.290646	  3.387122	  0	 26	 34	 0	 0
O	  0.105662	 -4.756190	  1.950244	  0	 26	 27	 0	 0
O	  3.804970	  0.642934	  2.822129	  0	 35	 24	 0	 0
Si	  3.693957	 -3.412780	  3.559184	  0	 29	 30	 31	 64
Si	  3.648545	 -0.306234	  4.151249	  0	 33	 73	 29	 72
O	  2.878166	  2.532812	  1.159306	  0	 37	 24	 0	 0
Si	  2.168900	  3.737281	  2.017795	  0	 41	 42	 36	 78
O	 -2.173701	  4.526279	  2.242599	  0	 49	 48	 0	 0
O	 -3.487133	  2.298113	  2.933345	  0	 52	 48	 0	 0
O	 -3.259783	  3.653780	 -0.043208	  0	 49	 53	 0	 0
O	  1.012153	  4.402363	  1.084371	  0	 50	 37	 0	 0
O	  1.519001	  3.078649	  3.362409	  0	 51	 37	 0	 0
O	 -1.186151	  5.320367	 -0.109581	  0	 49	 50	 0	 0
O	 -1.092500	  2.810663	  3.974231	  0	 51	 48	 0	 0
O	 -5.087509	  1.909073	  0.827049	  0	 52	 53	 0	 0
O	 -4.645138	  2.202129	 -1.796667	  0	 53	 56	 0	 0
O	 -4.235761	 -0.168952	  2.297255	  0	 57	 52	 0	 0
Si	 -2.496993	  3.474463	  3.463527	  0	 84	 44	 38	 39
Si	 -2.551162	  4.927630	  0.694534	  0	 43	 85	 38	 40
Si	  0.363971	  5.680449	  0.277156	  0	 41	 43	 83	 79
Si	  0.390487	  3.228520	  4.550529	  0	 42	 44	 77	 80
Si	 -4.706199	  1.392298	  2.338036	  0	 39	 45	 86	 47
Si	 -4.716209	  2.974872	 -0.365816	  0	 45	 46	 87	 40
O	 -4.205492	 -0.410433	 -1.476601	  0	 28	 56	 0	 0
O	 -4.102483	 -2.180360	  0.524173	  0	 57	 28	 0	 0
Si	 -4.985615	  0.708708	 -2.388407	  0	 76	 46	 54	 88
Si	 -4.817222	 -1.663153	  1.902514	  0	 55	 82	 81	 47
O	  3.919721	 -4.233835	 -4.515013	 -1	 90	 14	 0	 0
O	  1.276154	 -5.088333	 -5.275867	 -1	 91	 14	 0	 0
O	  2.244792	 -2.801664	 -6.198470	 -1	 92	 14	 0	 0
O	  3.748876	 -6.822824	 -0.840096	 -1	 93	 15	 0	 0
O	  1.114175	 -7.039120	 -0.709657	 -1	 94	 15	 0	 0
O	 -1.761821	 -4.764312	 -2.653267	 -1	 95	 16	 0	 0
O	  4.625782	 -3.866602	  4.785881	 -1	 34	 96	 0	 0
O	  1.369987	 -6.709347	  3.271848	 -1	 97	 26	 0	 0
O	  6.574389	 -4.080947	  0.572046	 -1	 109	 23	 0	 0
O	  6.629304	 -1.806113	  1.938709	 -1	 110	 23	 0	 0
O	  5.430027	  1.822662	  1.120479	 -1	 111	 24	 0	 0
O	  6.212219	 -2.169121	 -3.386547	 -1	 25	 112	 0	 0
O	  7.003615	  0.109292	 -2.292252	 -1	 113	 25	 0	 0
O	  5.424371	 -0.021850	 -4.444591	 -1	 25	 114	 0	 0
O	  5.073023	 -0.320190	  4.879397	 -1	 35	 104	 0	 0
O	  2.493017	  0.270701	  5.084641	 -1	 105	 35	 0	 0
O	 -1.705322	 -6.618557	  1.462970	 -1	 115	 27	 0	 0
O	 -2.396179	 -4.369887	  2.679828	 -1	 27	 116	 0	 0
O	 -4.486700	  0.639231	 -3.904254	 -1	 484	 56	 0	 0
O	  0.793253	  2.228476	  5.712785	 -1	 105	 51	 0	 0
O	  3.218829	  4.867350	  2.440684	 -1	 37	 232	 0	 0
O	  0.385159	  6.982460	  1.220701	 -1	 50	 230	 0	 0
O	  0.357389	  4.754553	  5.067093	 -1	 51	 229	 0	 0
O	 -4.441792	 -2.683225	  3.058445	 -1	 57	 116	 0	 0
O	 -6.412902	 -1.566437	  1.683229	 -1	 57	 733	 0	 0
O	  1.192694	  5.922749	 -1.064507	 -1	 50	 539	 0	 0
O	 -3.173571	  4.267108	  4.672343	 -1	 647	 48	 0	 0
O	 -3.535741	  6.178934	  0.713751	 -1	 49	 648	 0	 0
O	 -5.999793	  1.524628	  3.259835	 -1	 52	 655	 0	 0
O	 -5.828948	  4.113617	 -0.415082	 -1	 53	 656	 0	 0
O	 -6.568359	  0.456183	 -2.295146	 -1	 734	 56	 0	 0
O	 -5.330089	 -2.775525	 -1.728094	 -1	 28	 736	 0	 0
Si	  5.054885	 -5.376852	 -4.459816	 -23	 58	 1188	 1189	 127
Si	 -0.011410	 -5.743860	 -6.011010	 -23	 59	 1196	 1198	 128
Si	  3.224341	 -2.041851	 -7.232506	 -23	 1193	 60	 1191	 1192
Si	  5.071479	 -6.954228	 -1.750064	 -23	 1187	 61	 1190	 127
Si	  0.086283	 -7.995532	 -1.506104	 -23	 129	 1194	 1195	 62
Si	 -1.821391	 -6.062746	 -3.609707	 -23	 129	 1197	 63	 128
Si	  4.478048	 -4.296470	  6.329263	 -23	 98	 99	 100	 64
Si	  1.053178	 -7.431698	  4.682061	 -23	 65	 101	 102	 103
O	  2.928233	 -4.215653	  6.885954	 -1	 106	 96	 0	 0
O	  4.994686	 -5.823472	  6.495571	 -1	 107	 96	 0	 0
O	  5.383963	 -3.292384	  7.214765	 -1	 108	 96	 0	 0
O	  0.694680	 -6.324373	  5.814171	 -1	 97	 117	 0	 0
O	  2.368038	 -8.264395	  5.166933	 -1	 97	 118	 0	 0
O	 -0.202572	 -8.450237	  4.504373	 -1	 97	 119	 0	 0
Si	  6.668458	 -0.256578	  5.172455	 -23	 151	 157	 215	 72
Si	  2.101454	  1.395293	  6.186775	 -22	 73	 165	 77	 168
Si	  1.746971	 -3.570925	  7.785784	 -2	 206	 98	 150	 191
Si	  5.088832	 -7.047264	  7.563005	 -2	 99	 148	 214	 207
Si	  6.642946	 -2.286077	  7.428145	 -2	 201	 202	 100	 215
Si	  7.253144	 -4.909520	 -0.641837	 -23	 1187	 66	 283	 271
Si	  7.798170	 -0.742700	  2.300439	 -23	 67	 156	 151	 152
Si	  7.029040	  1.925301	  0.884253	 -23	 155	 68	 156	 158
Si	  7.198259	 -3.453313	 -3.408307	 -23	 1188	 69	 271	 280
Si	  7.928417	  1.402026	 -1.950745	 -23	 154	 155	 382	 70
Si	  5.386933	 -0.180072	 -6.061996	 -23	 1193	 474	 71	 464
Si	 -1.799037	 -8.154666	  0.949797	 -23	 74	 1194	 706	 696
Si	 -3.929651	 -4.216273	  3.191568	 -22	 81	 75	 180	 713
Si	 -0.371208	 -5.541954	  6.747349	 -2	 138	 101	 150	 142
Si	  2.929312	 -9.045007	  6.479290	 -2	 147	 148	 102	 143
Si	 -1.106647	 -9.461991	  3.603385	 -2	 690	 691	 103	 696
O	 -1.985791	 -6.939546	  10.324551	 -1	 228	 220	 0	 0
O	  6.392325	  3.381997	  10.261861	 -1	 221	 248	 0	 0
O	  6.324960	  1.070110	  14.731971	 -1	 225	 252	 0	 0
O	  12.175404	 -3.102539	  10.668997	 -1	 250	 223	 0	 0
O	  12.002676	 -4.561780	  13.782010	 -1	 251	 224	 0	 0
O	  2.090719	 -10.033932	  10.077843	 -1	 226	 227	 0	 0
O	  4.257416	 -10.663040	  11.451213	 -1	 226	 258	 0	 0
O	  4.758655	 -6.440005	 -3.265151	 -1	 90	 93	 0	 0
O	 -1.348305	 -5.643218	 -5.099195	 -1	 91	 95	 0	 0
O	 -0.498778	 -7.249823	 -2.829641	 -1	 94	 95	 0	 0
O	 -3.929090	 -5.377796	  7.280081	 -1	 217	 216	 0	 0
O	 -5.869355	 -4.346717	  8.729865	 -1	 217	 632	 0	 0
O	  2.902595	 -13.019747	  7.060601	 -1	 218	 219	 0	 0
O	 -4.526533	 -6.441525	  9.624887	 -1	 217	 220	 0	 0
O	  6.376481	  4.650936	  12.582501	 -1	 221	 222	 0	 0
O	  5.007753	  5.809574	  14.480103	 -1	 634	 222	 0	 0
O	  13.759902	 -2.811529	  12.807315	 -1	 223	 224	 0	 0
O	  6.520890	  3.708633	  15.075263	 -1	 225	 222	 0	 0
O	 -1.696284	 -5.146945	  5.905789	 -1	 117	 216	 0	 0
O	 -3.454120	 -8.849398	  9.217285	 -1	 220	 725	 0	 0
O	  6.778266	  11.069827	  1.788194	 -1	 490	 237	 0	 0
O	  0.118665	 -8.380686	  9.616591	 -1	 227	 228	 0	 0
O	 -0.809037	 -6.502386	  7.989344	 -1	 228	 117	 0	 0
O	  1.780212	 -8.998059	  7.637520	 -1	 227	 118	 0	 0
O	  0.075522	 -10.818843	  8.564007	 -1	 227	 724	 0	 0
O	  1.509087	 -14.057030	  9.039872	 -1	 723	 219	 0	 0
O	  3.431264	 -12.271909	  9.549130	 -1	 226	 219	 0	 0
O	  3.319812	 -10.572210	  6.095989	 -1	 218	 118	 0	 0
O	  4.285502	 -8.339046	  7.015258	 -1	 107	 118	 0	 0
O	  0.365810	 -5.827156	  10.292555	 -1	 260	 228	 0	 0
O	  0.321646	 -4.180713	  7.304281	 -1	 106	 117	 0	 0
O	  7.553388	 -0.224975	  3.817205	 -1	 110	 104	 0	 0
O	  9.264602	 -1.429815	  2.214839	 -1	 110	 312	 0	 0
O	  0.462599	  7.086917	  3.847436	 -1	 229	 230	 0	 0
O	  9.432393	  0.871422	 -1.635411	 -1	 113	 313	 0	 0
O	  7.337691	  2.218370	 -0.679544	 -1	 113	 111	 0	 0
O	  7.754078	  0.524405	  1.283240	 -1	 110	 111	 0	 0
O	  7.003151	  1.082194	  6.035567	 -1	 234	 104	 0	 0
O	  7.610867	  3.157324	  1.767318	 -1	 233	 111	 0	 0
O	  4.491248	  7.160181	  2.464686	 -1	 231	 232	 0	 0
O	  5.861543	  4.938426	  2.659083	 -1	 233	 232	 0	 0
O	  6.752330	  3.045951	  4.280052	 -1	 233	 234	 0	 0
O	  5.811700	  3.351423	  6.751191	 -1	 234	 235	 0	 0
O	  3.704685	  4.915139	  7.137025	 -1	 235	 236	 0	 0
O	  4.335165	  5.703327	  4.696166	 -1	 236	 232	 0	 0
O	  3.378537	  2.384694	  6.379357	 -1	 105	 235	 0	 0
O	  2.199101	  8.518615	  2.427665	 -1	 230	 231	 0	 0
O	  2.095800	  6.608892	  5.880252	 -1	 236	 229	 0	 0
O	  1.691897	  0.686260	  7.587903	 -1	 105	 243	 0	 0
O	  4.193717	  2.966046	  8.839116	 -1	 235	 248	 0	 0
O	  4.485777	  9.789902	  2.205194	 -1	 237	 231	 0	 0
O	  4.409823	  7.445142	  6.710513	 -1	 242	 236	 0	 0
O	  8.386908	  4.994882	  3.452781	 -1	 233	 239	 0	 0
O	  8.414132	  3.296955	  6.353921	 -1	 234	 240	 0	 0
O	  6.678777	  9.069551	  3.500558	 -1	 237	 238	 0	 0
O	  8.749330	  7.552524	  4.098363	 -1	 238	 239	 0	 0
O	  9.554154	  5.644401	  5.752968	 -1	 239	 240	 0	 0
O	  8.090426	  5.375448	  7.951376	 -1	 241	 240	 0	 0
O	  6.404555	  7.359650	  8.460120	 -1	 241	 242	 0	 0
O	  6.897828	  7.992849	  5.936546	 -1	 242	 238	 0	 0
O	 -4.019969	 -4.586115	  4.770747	 -1	 116	 216	 0	 0
O	  7.306188	  5.872825	  10.437443	 -1	 241	 221	 0	 0
O	  1.168850	 -0.613956	  9.817969	 -1	 243	 244	 0	 0
O	 -0.513291	  0.611123	  11.431782	 -1	 659	 244	 0	 0
O	  8.277939	 -7.990634	  9.785311	 -1	 245	 246	 0	 0
O	  0.973771	 -1.361473	  12.354390	 -1	 244	 247	 0	 0
O	  4.147454	  2.626900	  11.449956	 -1	 249	 248	 0	 0
O	  2.196018	  3.201912	  13.090577	 -1	 249	 661	 0	 0
O	  10.947881	 -5.338062	  11.440352	 -1	 250	 251	 0	 0
O	  3.868926	  1.242545	  13.708745	 -1	 249	 252	 0	 0
O	  2.139364	  0.932819	  11.717830	 -1	 249	 244	 0	 0
O	  1.718840	 -1.958527	  7.617967	 -1	 106	 243	 0	 0
O	  3.656144	 -0.589495	  8.804223	 -1	 243	 256	 0	 0
O	  5.535511	  0.927516	  9.938097	 -1	 256	 248	 0	 0
O	  1.236953	 -3.983526	  11.904298	 -1	 260	 247	 0	 0
O	  3.349428	 -2.542520	  12.628294	 -1	 247	 255	 0	 0
O	  5.345962	 -0.983423	  13.458403	 -1	 252	 255	 0	 0
O	  3.665335	  8.232810	  0.209642	 -1	 545	 231	 0	 0
O	  7.747633	 -5.204398	  12.627761	 -1	 253	 254	 0	 0
O	  5.836117	 -3.395903	  12.522367	 -1	 254	 255	 0	 0
O	  5.018936	 -1.497657	  10.869699	 -1	 255	 256	 0	 0
O	  6.224292	 -1.168172	  8.530889	 -1	 108	 256	 0	 0
O	  7.945605	 -3.103706	  7.944530	 -1	 257	 108	 0	 0
O	  7.268786	 -3.915458	  10.360946	 -1	 257	 254	 0	 0
O	  4.256204	 -8.027217	  11.195276	 -1	 258	 259	 0	 0
O	  2.919812	 -5.793130	  11.010551	 -1	 259	 260	 0	 0
O	  2.007673	 -3.926313	  9.358487	 -1	 106	 260	 0	 0
O	  4.449102	 -6.545208	  8.979476	 -1	 107	 259	 0	 0
O	  5.562951	 -5.742428	  11.258912	 -1	 259	 254	 0	 0
O	  9.936057	 -6.187102	  13.730774	 -1	 251	 253	 0	 0
O	  8.324173	 -7.824229	  12.416799	 -1	 253	 246	 0	 0
O	  6.538957	 -9.399529	  11.210544	 -1	 258	 246	 0	 0
O	  9.837957	 -3.706439	  9.665446	 -1	 257	 250	 0	 0
O	  8.333634	 -5.627876	  8.619500	 -1	 257	 245	 0	 0
O	  6.638802	 -7.494348	  7.753014	 -1	 107	 245	 0	 0
O	  7.074912	 -1.567584	  6.039071	 -1	 108	 104	 0	 0
Si	 -3.266939	 -5.567358	  5.816289	 -2	 681	 130	 138	 180
Si	 -5.138988	 -5.726000	  8.294831	 -2	 130	 131	 133	 680
Si	  2.862233	 -12.086330	  5.739614	 -2	 147	 132	 262	 695
Si	  2.966718	 -13.503970	  8.600458	 -2	 145	 146	 132	 1217
Si	 -3.482965	 -7.553662	  10.188066	 -2	 1200	 139	 133	 120
Si	  7.188727	  4.438825	  11.193093	 -2	 121	 181	 134	 1430
Si	  6.394052	  5.042551	  14.151665	 -2	 137	 1205	 134	 135
Si	  13.435417	 -2.310303	  11.292500	 -2	 1429	 123	 264	 136
Si	  13.445101	 -3.854746	  14.018703	 -2	 1218	 124	 1204	 136
Si	  7.112033	  2.251022	  15.512582	 -2	 137	 122	 1203	 1202
Si	  2.934544	 -11.265372	  10.729514	 -2	 1209	 146	 125	 126
Si	  1.018424	 -9.559446	  8.963558	 -2	 141	 125	 143	 144
Si	 -0.567335	 -6.912999	  9.542320	 -2	 149	 141	 142	 120
Si	  0.618719	  6.339953	  5.276276	 -23	 153	 580	 167	 80
Si	  0.682739	  7.945883	  2.497452	 -23	 153	 581	 166	 79
Si	  3.702988	  8.423868	  1.824440	 -2	 170	 197	 166	 159
Si	  4.479201	  5.663812	  3.075632	 -23	 164	 78	 159	 160
Si	  7.155744	  4.038621	  3.051522	 -2	 161	 172	 158	 160
Si	  6.994019	  2.694622	  5.852815	 -2	 161	 162	 173	 157
Si	  4.277200	  3.400222	  7.276413	 -2	 169	 162	 163	 165
Si	  3.637672	  6.163400	  6.096925	 -2	 163	 171	 164	 167
Si	  5.849143	  10.329992	  2.901949	 -2	 170	 1418	 140	 174
Si	  7.706472	  8.643622	  4.681138	 -2	 1210	 179	 174	 175
Si	  9.364545	  6.050155	  4.186435	 -2	 1427	 172	 175	 176
Si	  9.129920	  4.627247	  6.955633	 -2	 177	 1208	 173	 176
Si	  7.696766	  6.541895	  9.007807	 -2	 177	 178	 1211	 181
Si	  5.812258	  8.121767	  7.150847	 -2	 179	 178	 171	 1212
Si	  2.069531	 -0.617844	  8.471571	 -2	 168	 182	 191	 192
Si	  0.941919	 -0.092897	  11.332944	 -2	 185	 182	 183	 190
Si	  8.107710	 -7.210754	  8.375949	 -2	 300	 213	 214	 184
Si	  8.045178	 -8.807551	  11.158694	 -2	 210	 211	 1235	 184
Si	  1.748595	 -2.723568	  12.789734	 -2	 185	 194	 195	 1214
Si	  5.063532	  2.472138	  10.120163	 -2	 169	 186	 121	 193
Si	  3.088551	  1.993891	  12.494180	 -2	 186	 187	 189	 190
Si	  11.238440	 -4.327117	  10.195248	 -2	 302	 123	 212	 188
Si	  11.307424	 -5.777948	  12.966542	 -2	 209	 124	 188	 1236
Si	  4.960059	  0.262852	  14.423087	 -2	 122	 196	 189	 1216
Si	  8.386365	 -6.501459	  13.358144	 -2	 198	 210	 1206	 209
Si	  6.593913	 -4.562754	  11.690378	 -2	 203	 198	 199	 208
Si	  4.884582	 -2.089142	  12.366707	 -2	 195	 196	 199	 200
Si	  5.103111	 -0.581853	  9.538903	 -2	 201	 200	 193	 192
Si	  8.350476	 -4.098927	  9.156599	 -2	 202	 203	 212	 213
Si	  5.040994	 -9.299170	  11.828547	 -2	 211	 204	 126	 1207
Si	  4.303934	 -6.525020	  10.598531	 -2	 204	 205	 207	 208
Si	  1.633017	 -4.885187	  10.614962	 -2	 194	 205	 206	 149
O	  5.819579	 -13.725248	  3.180150	 -1	 307	 308	 0	 0
O	  3.879314	 -12.694169	  4.629934	 -1	 218	 308	 0	 0
O	  16.124442	 -3.697119	  8.482204	 -1	 309	 310	 0	 0
O	  14.755713	 -2.538482	  10.379805	 -1	 310	 223	 0	 0
O	  16.269559	 -4.638818	  10.975332	 -1	 310	 311	 0	 0
O	  5.261261	 -7.708824	 -8.004552	 -1	 322	 1075	 0	 0
O	  16.526935	  2.722375	 -2.311737	 -1	 326	 1079	 0	 0
O	  16.140286	 -4.966058	  6.161563	 -1	 332	 309	 0	 0
O	  16.073629	 -7.277342	  10.632040	 -1	 334	 311	 0	 0
O	  10.211268	 -1.260535	 -0.252495	 -1	 313	 312	 0	 0
O	  7.553564	 -3.893093	 -1.882286	 -1	 109	 112	 0	 0
O	  10.789600	 -3.980838	 -3.050727	 -1	 314	 315	 0	 0
O	  10.541213	 -6.119579	  1.612488	 -1	 316	 317	 0	 0
O	  11.228370	 -5.276535	 -0.777190	 -1	 315	 317	 0	 0
O	  14.239208	 -1.187874	 -1.635612	 -1	 318	 319	 0	 0
O	  13.452599	 -3.433394	  3.037605	 -1	 321	 320	 0	 0
O	  14.083126	 -2.644728	  0.595868	 -1	 321	 319	 0	 0
O	  12.966743	 -3.481183	 -1.658737	 -1	 315	 319	 0	 0
O	  13.127206	 -5.962758	  2.279426	 -1	 316	 320	 0	 0
O	  8.586459	 -3.089638	 -4.179340	 -1	 314	 112	 0	 0
O	  10.133828	 -1.364992	 -2.879230	 -1	 313	 314	 0	 0
O	  11.947062	  0.170560	 -1.672632	 -1	 313	 318	 0	 0
O	  8.657493	 -5.538254	 -0.125345	 -1	 109	 317	 0	 0
O	  10.106058	 -3.592899	  0.967162	 -1	 317	 312	 0	 0
O	  11.843761	 -1.739163	  1.779955	 -1	 321	 312	 0	 0
O	  11.440566	 -7.661192	  3.487972	 -1	 330	 316	 0	 0
O	  13.941677	 -5.382009	  4.738818	 -1	 332	 320	 0	 0
O	  14.233737	  1.441847	 -1.895103	 -1	 318	 326	 0	 0
O	  14.158492	 -0.902310	  2.610582	 -1	 321	 329	 0	 0
O	  5.608074	 -8.779194	 -5.626718	 -1	 322	 323	 0	 0
O	  5.306168	 -11.031280	 -1.041853	 -1	 324	 325	 0	 0
O	  5.667908	 -10.473264	 -3.580371	 -1	 323	 325	 0	 0
O	  16.427399	  0.721621	 -0.598496	 -1	 326	 327	 0	 0
O	  16.152515	 -0.988405	  4.359823	 -1	 329	 328	 0	 0
O	  16.645789	 -0.355206	  1.836249	 -1	 329	 327	 0	 0
O	  3.335766	 -9.913889	 -2.416702	 -1	 810	 325	 0	 0
O	  5.728700	 -12.933567	  0.670816	 -1	 307	 324	 0	 0
O	  17.054857	 -2.474627	  6.337512	 -1	 309	 328	 0	 0
O	  10.916810	 -8.962011	  5.717671	 -1	 330	 331	 0	 0
O	  9.234670	 -7.736932	  7.331485	 -1	 331	 245	 0	 0
O	  13.896123	 -5.720552	  7.350025	 -1	 332	 333	 0	 0
O	  11.943978	 -5.146143	  8.990280	 -1	 250	 333	 0	 0
O	  13.616886	 -7.105510	  9.608448	 -1	 333	 334	 0	 0
O	  11.887324	 -7.415236	  7.617533	 -1	 331	 333	 0	 0
O	  10.941362	 -2.424703	 -5.164438	 -1	 1105	 314	 0	 0
O	  13.413296	 -0.115245	 -3.890656	 -1	 1109	 318	 0	 0
Si	  6.481729	 -13.914810	  1.716358	 -2	 297	 1307	 1221	 261
Si	  4.609681	 -14.073452	  4.194900	 -2	 1425	 789	 261	 262
Si	  16.936688	 -3.909230	  7.092796	 -2	 298	 268	 1222	 263
Si	  16.141308	 -3.304866	  10.051678	 -2	 265	 1220	 263	 264
Si	  16.859993	 -6.097033	  11.412284	 -2	 265	 1219	 269	 1223
Si	  10.367388	 -2.007499	  1.176346	 -2	 284	 285	 270	 152
Si	  10.431408	 -0.401569	 -1.602479	 -2	 281	 154	 270	 282
Si	  10.117412	 -2.706588	 -3.790772	 -2	 281	 305	 272	 280
Si	  11.923821	 -4.637227	 -2.095057	 -2	 274	 1224	 278	 272
Si	  11.849414	 -6.952762	  2.086477	 -2	 273	 286	 279	 1225
Si	  10.125501	 -5.116410	  0.411017	 -2	 273	 274	 283	 284
Si	  13.450902	  0.075335	 -2.274980	 -2	 306	 275	 282	 288
Si	  14.227870	 -2.683640	 -1.024299	 -2	 1226	 275	 277	 278
Si	  14.025160	 -4.947833	  3.176116	 -2	 1227	 276	 287	 279
Si	  13.386341	 -2.184052	  1.996994	 -2	 289	 276	 285	 277
Si	  4.777683	 -7.655007	 -6.452472	 -2	 801	 290	 1189	 266
Si	  5.698447	 -10.344298	 -5.196034	 -2	 1228	 290	 292	 799
Si	  5.819017	 -12.563725	 -0.908362	 -2	 297	 291	 1229	 800
Si	  4.940894	 -9.969435	 -2.210916	 -2	 291	 292	 1190	 296
Si	  15.596399	  1.982576	 -1.198038	 -2	 267	 293	 1431	 288
Si	  17.454432	  0.295567	  0.580840	 -2	 293	 1230	 295	 1232
Si	  17.444726	 -1.806160	  4.907510	 -2	 1233	 298	 294	 1231
Si	  15.560927	 -0.225685	  3.050916	 -2	 289	 1234	 294	 295
Si	  11.817492	 -8.965899	  4.371274	 -2	 1238	 299	 286	 1239
Si	  10.689879	 -8.440952	  7.232647	 -2	 1424	 299	 300	 304
Si	  14.811492	 -5.875917	  6.019865	 -2	 268	 301	 287	 1240
Si	  12.837173	 -6.354039	  8.395126	 -2	 301	 302	 303	 304
Si	  14.708019	 -8.085203	  10.322789	 -2	 1241	 1237	 269	 303
O	 -3.543231	  3.867237	 -10.627458	 -1	 481	 480	 0	 0
O	 -5.483496	  4.898316	 -9.177673	 -1	 481	 972	 0	 0
O	  3.287750	 -3.774076	 -10.846627	 -1	 482	 483	 0	 0
O	 -5.288649	  2.914080	 -5.043992	 -1	 484	 973	 0	 0
O	 -3.567078	  1.254892	 -6.229940	 -1	 484	 485	 0	 0
O	 -4.140674	  2.803508	 -8.282652	 -1	 481	 485	 0	 0
O	  6.762340	  13.895968	 -5.325037	 -1	 486	 487	 0	 0
O	  5.392907	  15.055244	 -3.427125	 -1	 974	 487	 0	 0
O	  14.145057	  6.434142	 -5.099913	 -1	 489	 488	 0	 0
O	  5.227257	  12.590636	  0.248623	 -1	 490	 975	 0	 0
O	  7.312327	  11.327846	 -0.786153	 -1	 490	 491	 0	 0
O	  6.907504	  12.954747	 -2.832786	 -1	 491	 487	 0	 0
O	 -1.311129	  4.098726	 -12.001439	 -1	 494	 480	 0	 0
O	 -1.599932	  2.305487	 -7.582987	 -1	 493	 485	 0	 0
O	 -3.068261	  0.395634	 -8.690254	 -1	 875	 485	 0	 0
O	  6.778231	  12.627508	 -7.646555	 -1	 541	 486	 0	 0
O	  6.710161	  10.316259	 -3.176134	 -1	 546	 491	 0	 0
O	  12.561263	  6.142494	 -7.238541	 -1	 543	 488	 0	 0
O	  12.389244	  4.683855	 -4.125162	 -1	 489	 544	 0	 0
O	  0.504571	  0.864825	 -8.291825	 -1	 492	 493	 0	 0
O	 -0.423883	  2.743285	 -9.917884	 -1	 493	 494	 0	 0
O	  1.080539	  2.920660	 -12.093368	 -1	 494	 495	 0	 0
O	  2.753193	  0.981276	 -12.740295	 -1	 495	 496	 0	 0
O	  2.166070	  0.246974	 -10.270018	 -1	 492	 496	 0	 0
O	  0.462136	 -1.572729	 -9.344042	 -1	 874	 492	 0	 0
O	  0.182583	  0.795434	 -13.402855	 -1	 877	 495	 0	 0
O	  1.894241	 -4.811359	 -8.867356	 -1	 873	 483	 0	 0
O	  3.704967	 -1.326540	 -11.811239	 -1	 482	 496	 0	 0
O	  1.755141	  2.536324	 -14.635379	 -1	 495	 519	 0	 0
O	  4.671361	  0.905986	 -10.892281	 -1	 557	 496	 0	 0
O	  0.751669	  3.417877	 -7.614984	 -1	 554	 493	 0	 0
O	  0.706801	  5.064958	 -10.602947	 -1	 555	 494	 0	 0
O	  7.939247	  9.020057	 -14.090333	 -1	 497	 498	 0	 0
O	  9.649757	  7.815856	 -15.692388	 -1	 1081	 498	 0	 0
O	  0.848458	  16.331949	 -14.060103	 -1	 499	 500	 0	 0
O	  8.139937	  9.769437	 -16.624298	 -1	 498	 501	 0	 0
O	  4.993339	  5.749859	 -15.726316	 -1	 502	 503	 0	 0
O	  6.959544	  5.164724	 -17.335182	 -1	 1083	 503	 0	 0
O	 -1.809245	  13.699391	 -15.689893	 -1	 505	 504	 0	 0
O	  5.336726	  7.158355	 -17.981026	 -1	 506	 503	 0	 0
O	  7.014459	  7.439557	 -15.968519	 -1	 498	 503	 0	 0
O	  7.389009	  10.327227	 -11.871972	 -1	 497	 516	 0	 0
O	  5.458881	  8.924843	 -13.028141	 -1	 497	 510	 0	 0
O	  3.600486	  7.439485	 -14.224596	 -1	 510	 502	 0	 0
O	  7.996726	  12.402357	 -16.140220	 -1	 515	 501	 0	 0
O	  5.815181	  11.068333	 -16.786749	 -1	 501	 509	 0	 0
O	  3.916333	  9.432935	 -17.718258	 -1	 506	 509	 0	 0
O	  7.944940	  2.453615	 -3.186010	 -1	 113	 547	 0	 0
O	  2.699154	  5.015501	 -14.602517	 -1	 502	 519	 0	 0
O	  2.806326	  7.405925	 -18.866896	 -1	 506	 558	 0	 0
O	 -3.055506	  11.469555	 -14.924418	 -1	 521	 504	 0	 0
O	 -2.857499	  12.924244	 -18.035145	 -1	 505	 522	 0	 0
O	  1.426794	  13.612888	 -16.857657	 -1	 507	 508	 0	 0
O	  3.285609	  11.775437	 -16.744638	 -1	 508	 509	 0	 0
O	  4.163092	  9.882028	 -15.110063	 -1	 509	 510	 0	 0
O	  2.878876	  9.515734	 -12.822898	 -1	 510	 511	 0	 0
O	  1.179112	  11.473509	 -12.194753	 -1	 511	 512	 0	 0
O	  1.866315	  12.317031	 -14.585308	 -1	 508	 512	 0	 0
O	  4.876402	  16.405852	 -15.442542	 -1	 513	 514	 0	 0
O	  6.247448	  14.183937	 -15.249333	 -1	 514	 515	 0	 0
O	  7.138236	  12.291462	 -13.628363	 -1	 515	 516	 0	 0
O	  6.197559	  12.596456	 -11.156347	 -1	 516	 517	 0	 0
O	  4.089840	  14.160810	 -10.770203	 -1	 517	 518	 0	 0
O	  4.721071	  14.948838	 -13.212249	 -1	 514	 518	 0	 0
O	  3.603984	  14.113021	 -15.466544	 -1	 514	 508	 0	 0
O	  3.764396	  11.629727	 -11.528182	 -1	 517	 511	 0	 0
O	 -0.776304	  14.503325	 -17.987825	 -1	 505	 507	 0	 0
O	  0.771018	  16.227493	 -16.686838	 -1	 507	 500	 0	 0
O	  2.584256	  17.764286	 -15.479563	 -1	 513	 500	 0	 0
O	 -0.706021	  12.054868	 -13.932642	 -1	 512	 504	 0	 0
O	  0.743248	  13.999586	 -12.840445	 -1	 499	 512	 0	 0
O	  2.480955	  15.854563	 -12.026975	 -1	 499	 518	 0	 0
O	  2.077756	  9.931292	 -10.319635	 -1	 511	 535	 0	 0
O	  4.579576	  12.211079	 -9.068423	 -1	 517	 541	 0	 0
O	  4.871636	  19.034935	 -15.702344	 -1	 513	 529	 0	 0
O	  4.795682	  16.690175	 -11.197025	 -1	 534	 518	 0	 0
O	  8.773475	  14.240518	 -14.454391	 -1	 531	 515	 0	 0
O	  8.799287	  12.542625	 -11.553307	 -1	 516	 532	 0	 0
O	  2.827379	  3.556782	 -16.806292	 -1	 519	 520	 0	 0
O	  4.134030	  2.422847	 -18.747324	 -1	 1093	 520	 0	 0
O	 -4.604108	  11.152958	 -17.073636	 -1	 521	 522	 0	 0
O	  2.605126	  4.546935	 -19.287369	 -1	 558	 520	 0	 0
O	  1.499330	  2.206551	 -18.616885	 -1	 885	 520	 0	 0
O	 -1.319417	  2.626954	 -16.445445	 -1	 884	 526	 0	 0
O	  0.486700	  4.510593	 -15.928557	 -1	 526	 519	 0	 0
O	  0.320848	  6.364273	 -19.216242	 -1	 525	 558	 0	 0
O	 -3.754732	  8.814532	 -19.433648	 -1	 523	 524	 0	 0
O	 -2.267584	  6.653348	 -19.559180	 -1	 524	 525	 0	 0
O	 -1.391276	  4.887612	 -17.796886	 -1	 525	 526	 0	 0
O	 -2.011024	  4.875784	 -15.227399	 -1	 526	 527	 0	 0
O	 -4.055933	  6.561808	 -14.849093	 -1	 527	 528	 0	 0
O	 -3.695606	  7.119859	 -17.387668	 -1	 524	 528	 0	 0
O	  7.064636	  18.314583	 -14.406980	 -1	 529	 530	 0	 0
O	  9.135189	  16.797556	 -13.809176	 -1	 530	 531	 0	 0
O	  9.940013	  14.889433	 -12.154571	 -1	 531	 532	 0	 0
O	  8.475580	  14.621119	 -9.955851	 -1	 532	 533	 0	 0
O	  6.789709	  16.605321	 -9.447108	 -1	 533	 534	 0	 0
O	  7.283687	  17.237881	 -11.970992	 -1	 530	 534	 0	 0
O	 -4.210759	  11.404581	 -19.673795	 -1	 522	 523	 0	 0
O	 -3.842844	  9.078172	 -15.603465	 -1	 521	 528	 0	 0
O	 -6.027748	  7.679234	 -16.223999	 -1	 886	 528	 0	 0
O	 -3.634815	  4.659556	 -13.136481	 -1	 527	 480	 0	 0
O	  7.691389	  15.118974	 -7.470662	 -1	 533	 486	 0	 0
O	  1.554004	  8.631715	 -8.089259	 -1	 535	 536	 0	 0
O	 -0.128136	  9.856794	 -6.475446	 -1	 998	 536	 0	 0
O	  8.663093	  1.255037	 -8.121917	 -1	 537	 538	 0	 0
O	 -0.312946	  7.514321	 -2.579033	 -1	 539	 999	 0	 0
O	  1.773186	  6.192548	 -3.570660	 -1	 539	 540	 0	 0
O	  1.358926	  7.884198	 -5.552838	 -1	 540	 536	 0	 0
O	  4.533313	  11.871933	 -6.457583	 -1	 541	 542	 0	 0
O	  2.581172	  12.447583	 -4.816651	 -1	 542	 1000	 0	 0
O	  11.333036	  3.907609	 -6.466876	 -1	 543	 544	 0	 0
O	  2.968831	  10.557432	 -0.880227	 -1	 545	 1001	 0	 0
O	  4.700131	  8.952926	 -2.098551	 -1	 545	 546	 0	 0
O	  4.254785	  10.487578	 -4.198793	 -1	 546	 542	 0	 0
O	  2.525223	  10.177852	 -6.189708	 -1	 542	 536	 0	 0
O	  2.127815	  8.286189	 -1.950451	 -1	 545	 539	 0	 0
O	  2.104699	  7.286505	 -10.289571	 -1	 555	 535	 0	 0
O	  4.042054	  8.657257	 -9.103516	 -1	 550	 535	 0	 0
O	  5.920666	  10.173187	 -7.969130	 -1	 541	 550	 0	 0
O	  1.622108	  5.262145	 -6.002930	 -1	 554	 540	 0	 0
O	  3.735334	  6.702991	 -5.280122	 -1	 540	 549	 0	 0
O	  5.731820	  8.261610	 -4.449136	 -1	 546	 549	 0	 0
O	  8.132787	  4.041273	 -5.279467	 -1	 547	 548	 0	 0
O	  6.221976	  5.849129	 -5.385171	 -1	 548	 549	 0	 0
O	  5.404090	  7.748014	 -7.037528	 -1	 549	 550	 0	 0
O	  6.609446	  8.077499	 -9.376338	 -1	 550	 551	 0	 0
O	  8.330760	  6.141965	 -9.962698	 -1	 551	 552	 0	 0
O	  7.653941	  5.330213	 -7.546282	 -1	 548	 552	 0	 0
O	  4.641359	  1.218454	 -6.711952	 -1	 553	 114	 0	 0
O	  3.305013	  3.453019	 -6.897554	 -1	 553	 554	 0	 0
O	  2.392828	  5.319358	 -8.548741	 -1	 554	 555	 0	 0
O	  3.313434	  5.030496	 -11.022151	 -1	 555	 556	 0	 0
O	  5.379841	  3.422199	 -11.411657	 -1	 556	 557	 0	 0
O	  4.834961	  2.699824	 -8.928063	 -1	 553	 557	 0	 0
O	  5.948810	  3.502604	 -6.648626	 -1	 553	 548	 0	 0
O	  5.769822	  5.952649	 -10.692773	 -1	 556	 551	 0	 0
O	  10.321211	  3.058569	 -4.176454	 -1	 547	 544	 0	 0
O	  8.710032	  1.420804	 -5.490739	 -1	 538	 547	 0	 0
O	  6.924112	 -0.153858	 -6.696684	 -1	 538	 114	 0	 0
O	  10.223111	  5.539232	 -8.241782	 -1	 543	 552	 0	 0
O	  8.719493	  3.617156	 -9.288039	 -1	 537	 552	 0	 0
O	  7.023956	  1.751323	 -10.154213	 -1	 537	 557	 0	 0
O	  7.460067	  7.678087	 -11.868157	 -1	 497	 551	 0	 0
O	  4.896314	  5.363109	 -13.132740	 -1	 556	 502	 0	 0
Si	 -2.881080	  3.677674	 -12.091250	 -2	 347	 436	 335	 824
Si	 -4.753833	  3.519671	 -9.612397	 -2	 340	 822	 335	 336
Si	  3.248092	 -2.841297	 -12.167925	 -2	 337	 362	 837	 1016
Si	  3.351873	 -4.258299	 -9.306770	 -2	 361	 1017	 337	 1192
Si	 -4.895269	  1.360596	 -5.302358	 -23	 338	 339	 76	 823
Si	 -3.097106	  1.691370	 -7.719473	 -2	 348	 339	 340	 349
Si	  7.574586	  13.683857	 -6.714445	 -2	 437	 341	 350	 1432
Si	  6.779253	  14.288700	 -3.756440	 -2	 346	 341	 342	 1242
Si	  13.821276	  6.934729	 -6.615039	 -2	 1428	 1021	 343	 352
Si	  13.830302	  5.391404	 -3.889401	 -2	 353	 1022	 1247	 343
Si	  6.746143	  12.095371	  0.531571	 -2	 345	 1243	 140	 344
Si	  7.497187	  11.496693	 -2.394646	 -2	 345	 346	 1244	 351
Si	  1.403579	 -0.313775	 -8.943670	 -2	 354	 359	 358	 1191
Si	 -0.181477	  2.332033	 -8.365218	 -2	 354	 355	 348	 365
Si	  0.014651	  3.703079	 -11.160190	 -2	 356	 355	 347	 366
Si	  1.439084	  1.813813	 -13.226354	 -2	 363	 356	 357	 360
Si	  3.315170	  0.200026	 -11.428248	 -2	 362	 364	 357	 358
Si	  7.054317	  8.988455	 -12.735083	 -2	 377	 478	 367	 376
Si	  8.184033	  8.503574	 -15.606422	 -2	 370	 375	 367	 368
Si	  1.004578	  15.584985	 -12.631262	 -2	 369	 405	 918	 406
Si	  1.068644	  17.191394	 -15.410964	 -2	 369	 402	 403	 1338
Si	  7.415654	  11.171415	 -17.023795	 -2	 1249	 370	 379	 380
Si	  4.048040	  5.889517	 -14.418861	 -2	 378	 371	 479	 383
Si	  6.067283	  6.382185	 -16.757568	 -2	 371	 372	 374	 375
Si	 -2.108958	  12.683568	 -14.449078	 -2	 385	 404	 373	 921
Si	 -2.163842	  14.139775	 -17.215548	 -2	 401	 386	 1340	 373
Si	  4.212800	  8.126095	 -18.661445	 -2	 1251	 381	 374	 384
Si	  0.754602	  14.885897	 -17.598380	 -2	 401	 402	 387	 1258
Si	  2.561719	  12.955861	 -15.902298	 -2	 387	 388	 399	 392
Si	  4.306349	  10.520865	 -16.587614	 -2	 380	 389	 388	 381
Si	  4.033851	  8.941190	 -13.801023	 -2	 377	 378	 389	 390
Si	  2.486655	  10.641443	 -11.721330	 -2	 407	 390	 391	 400
Si	  0.762691	  12.476075	 -13.396591	 -2	 404	 405	 391	 392
Si	  4.088847	  17.668900	 -16.083098	 -2	 393	 403	 1259	 409
Si	  4.865060	  14.908844	 -14.831906	 -2	 393	 394	 398	 399
Si	  7.540899	  13.284291	 -14.855706	 -2	 394	 379	 411	 395
Si	  7.379878	  11.939654	 -12.054724	 -2	 395	 396	 412	 376
Si	  4.663059	  12.645254	 -10.631125	 -2	 408	 396	 397	 400
Si	  4.023531	  15.408432	 -11.810613	 -2	 410	 397	 406	 398
Si	  1.934208	  3.900395	 -15.506842	 -2	 419	 363	 413	 383
Si	  2.757451	  3.229328	 -18.407112	 -2	 417	 413	 414	 416
Si	 -4.291331	  10.638257	 -15.557672	 -2	 385	 434	 939	 415
Si	 -4.307924	  12.215632	 -18.267424	 -2	 433	 386	 1346	 415
Si	 -4.585122	  9.938719	 -20.259403	 -2	 433	 1245	 421	 862
Si	 -3.665068	  7.248824	 -19.003331	 -2	 426	 860	 421	 422
Si	 -1.079739	  5.574396	 -19.239320	 -2	 420	 853	 422	 423
Si	 -1.051357	  4.222339	 -16.363871	 -2	 418	 419	 423	 424
Si	 -3.543793	  5.028759	 -14.715970	 -2	 425	 436	 861	 424
Si	 -4.421869	  7.623528	 -16.019401	 -2	 425	 426	 435	 434
Si	  6.234344	  19.576141	 -15.006156	 -2	 409	 427	 1420	 1246
Si	  8.092330	  17.888655	 -13.226401	 -2	 427	 428	 1255	 432
Si	  9.751159	  15.296269	 -13.721614	 -2	 411	 428	 429	 1438
Si	  9.515074	  13.872918	 -10.951595	 -2	 1254	 412	 429	 430
Si	  8.081920	  15.787566	 -8.899421	 -2	 437	 430	 431	 1256
Si	  6.197413	  17.367437	 -10.756381	 -2	 1257	 410	 431	 432
Si	  2.454686	  8.627827	 -9.435657	 -2	 452	 453	 438	 407
Si	  1.327074	  9.152774	 -6.574284	 -2	 450	 443	 438	 439
Si	  8.493568	  2.034279	 -9.531589	 -2	 476	 477	 1062	 440
Si	  8.430332	  0.438120	 -6.748534	 -2	 473	 474	 1063	 440
Si	  1.195741	  6.998690	 -2.283790	 -23	 441	 442	 451	 83
Si	  2.133796	  6.522582	 -5.118371	 -2	 442	 443	 455	 456
Si	  5.448687	  11.717809	 -7.787065	 -2	 444	 350	 454	 408
Si	  3.473706	  11.239562	 -5.413048	 -2	 449	 450	 444	 445
Si	  11.624298	  4.917915	 -7.712291	 -2	 475	 1067	 446	 352
Si	  11.692579	  3.467723	 -4.940686	 -2	 353	 1068	 446	 472
Si	  3.361223	  9.013217	 -1.179202	 -2	 451	 197	 447	 448
Si	  5.345918	  9.507884	 -3.484451	 -2	 449	 448	 351	 457
Si	  8.772224	  2.743574	 -4.549395	 -2	 473	 458	 382	 472
Si	  6.979068	  4.682917	 -6.216850	 -2	 458	 459	 470	 463
Si	  5.269737	  7.156529	 -5.540521	 -2	 457	 459	 460	 456
Si	  5.488970	  8.663179	 -8.368636	 -2	 461	 460	 453	 454
Si	  7.028101	  6.959594	 -10.479083	 -2	 478	 461	 462	 471
Si	  8.736335	  5.146105	 -8.750940	 -2	 475	 476	 462	 463
Si	  4.690502	  2.720615	 -7.308641	 -2	 465	 469	 470	 464
Si	  2.018172	  4.360484	 -7.292266	 -2	 465	 466	 365	 455
Si	  2.132125	  5.674746	 -10.121444	 -2	 466	 467	 452	 366
Si	  4.840807	  4.948832	 -11.566817	 -2	 467	 468	 471	 479
Si	  5.474691	  2.197768	 -10.344534	 -2	 477	 364	 469	 468
Si	  1.995614	  6.107111	 -19.732450	 -2	 416	 420	 1253	 384
O	 -6.845365	 -4.671692	  11.160899	 -1	 633	 632	 0	 0
O	  4.011942	  5.536526	  16.907612	 -1	 634	 635	 0	 0
O	  2.426735	  5.244913	  14.768928	 -1	 634	 661	 0	 0
O	  2.254716	  3.786275	  17.882307	 -1	 635	 662	 0	 0
O	 -7.657950	 -1.686480	  14.177774	 -1	 636	 637	 0	 0
O	 -9.630004	 -0.033234	  13.716521	 -1	 637	 638	 0	 0
O	 -10.557706	  1.845066	  12.089275	 -1	 638	 639	 0	 0
O	 -9.053989	  2.023079	  9.914101	 -1	 639	 640	 0	 0
O	 -7.379922	  0.083660	  9.267230	 -1	 641	 640	 0	 0
O	 -7.968457	 -0.650607	  11.737451	 -1	 641	 637	 0	 0
O	 -9.671687	 -2.470948	  12.663117	 -1	 772	 637	 0	 0
O	 -9.950532	 -0.102182	  8.604671	 -1	 775	 640	 0	 0
O	 -8.238873	 -5.708975	  13.140169	 -1	 633	 771	 0	 0
O	 -6.317404	 -3.924457	  13.649061	 -1	 633	 636	 0	 0
O	 -6.428148	 -2.224155	  10.196287	 -1	 641	 632	 0	 0
O	 -8.378682	  1.638105	  7.371779	 -1	 654	 640	 0	 0
O	 -5.490544	 -2.314985	  15.551510	 -1	 636	 669	 0	 0
O	 -5.461754	  0.008370	  11.115244	 -1	 641	 674	 0	 0
O	 -9.382859	  2.520296	  14.392486	 -1	 638	 671	 0	 0
O	 -9.426314	  4.167342	  11.404578	 -1	 639	 672	 0	 0
O	 -2.194572	  8.123080	  7.917503	 -1	 642	 643	 0	 0
O	 -0.484066	  6.917637	  6.314770	 -1	 643	 229	 0	 0
O	 -0.315567	  9.219477	  2.464886	 -1	 644	 230	 0	 0
O	 -2.410269	  10.566425	  3.420754	 -1	 644	 645	 0	 0
O	 -1.993882	  8.872460	  5.383538	 -1	 643	 645	 0	 0
O	 -5.139776	  4.852243	  6.281209	 -1	 646	 647	 0	 0
O	 -5.305610	  7.764427	  1.928772	 -1	 649	 648	 0	 0
O	 -4.796389	  6.260739	  4.026499	 -1	 649	 647	 0	 0
O	 -3.119365	  6.541338	  6.038640	 -1	 643	 647	 0	 0
O	 -2.745053	  8.456744	  1.807678	 -1	 644	 648	 0	 0
O	 -2.745518	  9.429646	  10.135497	 -1	 642	 653	 0	 0
O	 -4.674938	  8.027865	  8.979695	 -1	 642	 651	 0	 0
O	 -6.534042	  6.541905	  7.782873	 -1	 651	 646	 0	 0
O	 -2.137097	  11.504138	  5.866939	 -1	 652	 645	 0	 0
O	 -4.317934	  10.170717	  5.220777	 -1	 650	 645	 0	 0
O	 -6.216782	  8.535320	  4.289268	 -1	 649	 650	 0	 0
O	 -7.434669	  4.117282	  7.404641	 -1	 654	 646	 0	 0
O	 -7.327497	  6.507706	  3.140263	 -1	 649	 675	 0	 0
O	 -5.970728	  8.985051	  6.897773	 -1	 650	 651	 0	 0
O	 -2.995583	  11.394485	  8.379473	 -1	 652	 653	 0	 0
O	 -7.307149	  2.659201	  5.201177	 -1	 654	 655	 0	 0
O	 -7.967006	  5.417410	  0.553710	 -1	 675	 656	 0	 0
O	 -7.528698	  3.648716	  2.719789	 -1	 675	 655	 0	 0
O	 -8.634494	  1.308332	  3.390274	 -1	 780	 655	 0	 0
O	 -8.241246	  3.260237	 -1.027305	 -1	 781	 656	 0	 0
O	 -11.453287	  1.728256	  5.562591	 -1	 658	 779	 0	 0
O	 -9.647123	  3.612374	  6.078602	 -1	 658	 654	 0	 0
O	 -9.812975	  5.466054	  2.790917	 -1	 657	 675	 0	 0
O	 -11.525099	  3.989393	  4.210273	 -1	 657	 658	 0	 0
O	 -1.470022	  0.357421	  13.885608	 -1	 659	 660	 0	 0
O	  1.199212	  3.009390	  15.540283	 -1	 661	 662	 0	 0
O	 -2.001036	  3.143054	  16.727691	 -1	 663	 664	 0	 0
O	 -3.912552	  4.951548	  16.622298	 -1	 665	 664	 0	 0
O	 -4.729733	  6.849795	  14.969630	 -1	 665	 666	 0	 0
O	 -3.524377	  7.179280	  12.630820	 -1	 666	 667	 0	 0
O	 -1.803064	  5.243746	  12.044461	 -1	 667	 668	 0	 0
O	 -2.479174	  4.432597	  14.461243	 -1	 668	 664	 0	 0
O	 -5.491756	  0.320838	  15.295573	 -1	 669	 670	 0	 0
O	 -6.828857	  2.554322	  15.110482	 -1	 670	 671	 0	 0
O	 -7.740996	  4.421139	  13.458418	 -1	 671	 672	 0	 0
O	 -6.820436	  4.131799	  10.985884	 -1	 673	 672	 0	 0
O	 -4.753274	  2.524583	  10.595869	 -1	 673	 674	 0	 0
O	 -5.299567	  1.802244	  13.079407	 -1	 674	 670	 0	 0
O	 -4.184305	  2.604988	  15.358899	 -1	 670	 664	 0	 0
O	 -4.363997	  5.055671	  11.315063	 -1	 673	 667	 0	 0
O	  0.188096	  2.160953	  17.831071	 -1	 662	 663	 0	 0
O	 -1.423787	  0.523826	  16.517097	 -1	 660	 663	 0	 0
O	 -3.209712	 -1.052077	  15.310474	 -1	 660	 669	 0	 0
O	  0.089996	  4.641616	  13.765743	 -1	 668	 661	 0	 0
O	 -1.414331	  2.718937	  12.719120	 -1	 659	 668	 0	 0
O	 -3.109867	  0.853104	  11.852945	 -1	 674	 659	 0	 0
O	 -2.673757	  6.779868	  10.139002	 -1	 642	 667	 0	 0
O	 -5.236801	  4.465493	  8.874785	 -1	 673	 646	 0	 0
Si	 -6.886435	 -3.738878	  9.839545	 -2	 754	 131	 573	 559
Si	 -6.781242	 -5.155915	  12.700755	 -2	 571	 572	 1199	 559
Si	  3.687457	  6.037752	  15.392797	 -2	 561	 1416	 135	 560
Si	  3.697187	  4.493788	  18.118124	 -2	 1201	 562	 1263	 560
Si	 -6.814124	 -2.917920	  14.829445	 -2	 563	 572	 1270	 575
Si	 -8.729536	 -1.211391	  13.063856	 -2	 569	 563	 564	 568
Si	 -10.316004	  1.434453	  13.642251	 -2	 577	 564	 565	 1261
Si	 -10.119876	  2.805498	  10.847280	 -2	 578	 1260	 565	 566
Si	 -8.695444	  0.916232	  8.781115	 -2	 570	 574	 566	 567
Si	 -6.818649	 -0.696952	  10.579588	 -2	 573	 568	 567	 576
Si	 -3.079502	  8.091477	  9.272753	 -2	 579	 630	 589	 590
Si	 -1.949790	  7.605355	  6.400736	 -2	 587	 580	 579	 583
Si	 -1.820252	  9.749477	  2.149186	 -2	 930	 588	 581	 582
Si	 -2.718920	  10.273356	  4.984551	 -2	 593	 582	 583	 592
Si	 -6.085075	  4.991901	  7.588664	 -2	 595	 631	 591	 584
Si	 -4.066587	  5.483487	  5.250467	 -23	 586	 587	 84	 584
Si	 -3.959353	  7.713437	  1.026289	 -23	 585	 931	 588	 85
Si	 -5.920314	  7.228479	  3.346081	 -2	 585	 586	 596	 594
Si	 -5.826766	  9.623249	  5.419911	 -2	 593	 594	 597	 1266
Si	 -6.100677	  8.043610	  8.206447	 -2	 1267	 597	 590	 591
Si	 -2.592925	  12.386072	  7.151453	 -2	 1268	 598	 1415	 592
Si	 -2.754650	  11.042073	  9.952746	 -2	 1414	 589	 598	 1269
Si	 -8.199615	  3.002176	  6.500317	 -2	 595	 605	 574	 599
Si	 -7.375711	  2.331233	  3.601290	 -23	 601	 602	 86	 599
Si	 -7.370557	  4.605164	 -0.680743	 -23	 945	 603	 87	 600
Si	 -11.212854	  4.676780	  2.768206	 -2	 1271	 766	 606	 607
Si	 -11.184472	  3.324723	  5.643655	 -2	 604	 605	 607	 1272
Si	 -1.640959	  1.136698	  12.475880	 -2	 628	 629	 183	 608
Si	 -1.702783	 -0.459496	  15.258992	 -2	 625	 626	 1213	 608
Si	  1.490479	  4.020938	  14.295545	 -2	 609	 187	 627	 561
Si	  1.559464	  2.570107	  17.066839	 -2	 609	 562	 1215	 624
Si	 -1.362304	  1.845993	  17.458075	 -2	 625	 610	 1264	 624
Si	 -3.154047	  3.785301	  15.790675	 -2	 610	 611	 622	 615
Si	 -4.864086	  6.258310	  16.466638	 -2	 611	 612	 1277	 1278
Si	 -4.645558	  7.765599	  13.638834	 -2	 1274	 1275	 612	 613
Si	 -3.105014	  6.061978	  11.528442	 -2	 614	 613	 630	 623
Si	 -1.398192	  4.248525	  13.256529	 -2	 627	 628	 614	 615
Si	 -4.706966	 -0.951115	  15.928845	 -2	 1265	 626	 575	 616
Si	 -5.443322	  1.822396	  14.698518	 -2	 617	 621	 622	 616
Si	 -8.114943	  3.462868	  14.715260	 -2	 577	 618	 1276	 617
Si	 -8.001698	  4.776527	  11.885715	 -2	 1273	 578	 619	 618
Si	 -5.292308	  4.051216	  10.440709	 -2	 631	 620	 623	 619
Si	 -4.659836	  1.300188	  11.662935	 -2	 629	 620	 621	 576
Si	 -8.137501	  5.209495	  2.275076	 -2	 601	 596	 606	 600
O	 -7.446925	 -8.109227	  5.696477	 -1	 718	 719	 0	 0
O	 -8.815654	 -6.950589	  7.594078	 -1	 769	 719	 0	 0
O	 -0.063551	 -15.572170	  5.922167	 -1	 721	 720	 0	 0
O	 -7.301104	 -9.051565	  8.189294	 -1	 722	 719	 0	 0
O	 -6.166969	 -6.739332	  7.553999	 -1	 217	 719	 0	 0
O	 -3.379551	 -7.096369	  5.284314	 -1	 726	 216	 0	 0
O	 -5.168903	 -8.949486	  4.613922	 -1	 726	 718	 0	 0
O	 -5.147453	 -10.660663	  8.240731	 -1	 722	 725	 0	 0
O	 -7.045188	 -1.690814	 -5.096954	 -1	 735	 871	 0	 0
O	 -1.648050	 -15.863180	  3.783849	 -1	 741	 720	 0	 0
O	 -1.819318	 -17.321978	  6.896041	 -1	 721	 742	 0	 0
O	 -0.941514	 -13.233504	  8.307013	 -1	 723	 724	 0	 0
O	 -2.568620	 -11.164551	  8.333735	 -1	 724	 725	 0	 0
O	 -3.492992	 -9.357283	  6.631440	 -1	 725	 726	 0	 0
O	 -2.641421	 -9.369115	  4.127544	 -1	 726	 119	 0	 0
O	 -0.563897	 -10.983732	  3.721501	 -1	 727	 119	 0	 0
O	 -0.997939	 -11.562967	  6.249154	 -1	 724	 727	 0	 0
O	 -0.414514	 -15.809190	  8.533690	 -1	 721	 723	 0	 0
O	 -0.774996	 -13.498916	  4.426450	 -1	 727	 720	 0	 0
O	  1.364795	 -12.101144	  5.130604	 -1	 218	 727	 0	 0
O	 -1.032060	 -9.094915	  2.026421	 -1	 115	 119	 0	 0
O	 -9.332206	 -5.600460	 -4.420462	 -1	 729	 728	 0	 0
O	 -7.961864	 -7.821737	 -4.226942	 -1	 729	 730	 0	 0
O	 -7.070368	 -9.713608	 -2.605606	 -1	 730	 731	 0	 0
O	 -9.488241	 -7.056836	 -2.189859	 -1	 729	 732	 0	 0
O	 -9.337630	 -2.970261	 -4.680831	 -1	 735	 728	 0	 0
O	 -9.412927	 -5.316137	 -0.174945	 -1	 740	 732	 0	 0
O	 -5.435087	 -7.765316	 -3.433188	 -1	 737	 730	 0	 0
O	 -5.409275	 -9.463208	 -0.532104	 -1	 738	 731	 0	 0
O	 -7.896702	 -0.635568	 -0.297635	 -1	 733	 734	 0	 0
O	 -3.365184	 -8.592906	  0.878183	 -1	 738	 115	 0	 0
O	 -7.143972	 -3.691729	 -3.384900	 -1	 735	 736	 0	 0
O	 -5.074123	 -5.208117	 -2.786785	 -1	 737	 736	 0	 0
O	 -4.269299	 -7.116240	 -1.132180	 -1	 737	 738	 0	 0
O	 -5.732981	 -7.384715	  1.065352	 -1	 738	 739	 0	 0
O	 -7.418852	 -5.400513	  1.574095	 -1	 739	 740	 0	 0
O	 -6.925579	 -4.767314	 -0.949479	 -1	 740	 736	 0	 0
O	 -4.870005	 -5.208750	  2.307141	 -1	 739	 116	 0	 0
O	 -8.396628	 -1.408531	 -2.794913	 -1	 734	 735	 0	 0
O	 -8.319681	 -3.090564	  0.611289	 -1	 740	 733	 0	 0
O	 -6.517219	 -6.887338	  3.551418	 -1	 739	 718	 0	 0
O	 -2.875526	 -18.098225	  4.554327	 -1	 741	 742	 0	 0
Si	 -6.634726	 -8.321817	  4.307945	 -2	 682	 1435	 716	 676
Si	 -7.429355	 -7.717612	  7.265640	 -2	 676	 677	 679	 680
Si	 -0.387282	 -15.069863	  4.406842	 -2	 788	 685	 678	 694
Si	 -0.377598	 -16.614305	  7.133045	 -2	 1306	 693	 686	 678
Si	 -6.711374	 -10.509141	  8.626557	 -2	 1434	 683	 679	 1280
Si	 -0.087237	 -14.333768	  9.134544	 -2	 145	 693	 687	 1288
Si	 -1.107618	 -11.685471	  7.865263	 -2	 144	 692	 687	 688
Si	 -3.674942	 -10.002549	  8.098861	 -2	 689	 683	 139	 688
Si	 -3.670303	 -8.687218	  5.170936	 -2	 689	 682	 690	 681
Si	 -0.236240	 -12.044693	  4.893603	 -2	 691	 692	 694	 695
Si	 -10.119761	 -4.337412	 -5.061018	 -2	 697	 1291	 701	 1286
Si	 -9.342793	 -7.096386	 -3.810336	 -2	 697	 698	 700	 1285
Si	 -6.667663	 -8.721542	 -3.834503	 -2	 1282	 698	 699	 703
Si	 -6.828684	 -10.066180	 -1.033521	 -2	 1281	 699	 1283	 704
Si	 -10.185735	 -6.596763	 -0.789100	 -2	 1284	 700	 702	 1287
Si	 -7.889106	 -1.582981	  1.019675	 -23	 705	 82	 715	 760
Si	 -8.004066	 -0.156050	 -1.838941	 -23	 705	 714	 761	 88
Si	 -7.974264	 -2.430171	 -3.984076	 -2	 714	 707	 684	 701
Si	 -6.116935	 -4.116540	 -2.204887	 -23	 89	 707	 708	 712
Si	 -4.458154	 -6.709405	 -2.699223	 -2	 1197	 708	 709	 703
Si	 -4.693534	 -8.133394	  0.070485	 -2	 706	 709	 710	 704
Si	 -6.126641	 -6.218268	  2.121782	 -2	 713	 716	 710	 711
Si	 -8.011195	 -4.638875	  0.265699	 -2	 715	 702	 711	 712
Si	 -2.585014	 -17.087758	  3.310100	 -2	 1316	 685	 717	 1293
Si	 -2.516029	 -18.538589	  6.081394	 -2	 1292	 717	 686	 1317
O	 -9.811512	 -7.224115	  10.022464	 -1	 769	 770	 0	 0
O	 -11.395968	 -7.515888	  7.882593	 -1	 769	 785	 0	 0
O	 -11.567987	 -8.974527	  10.995972	 -1	 770	 786	 0	 0
O	 -10.690183	 -4.886052	  12.406944	 -1	 771	 772	 0	 0
O	 -12.316580	 -2.816496	  12.434033	 -1	 772	 773	 0	 0
O	 -13.240906	 -1.008750	  10.730860	 -1	 773	 774	 0	 0
O	 -12.389386	 -1.022302	  8.227164	 -1	 774	 775	 0	 0
O	 -10.311858	 -2.635677	  7.821799	 -1	 775	 776	 0	 0
O	 -10.746608	 -3.215516	  10.349085	 -1	 772	 776	 0	 0
O	 -10.163182	 -7.461738	  12.633621	 -1	 770	 771	 0	 0
O	 -10.523665	 -5.151464	  8.526380	 -1	 769	 776	 0	 0
O	 -8.383874	 -3.753692	  9.230535	 -1	 776	 632	 0	 0
O	 -10.780024	 -0.748102	  6.126041	 -1	 779	 775	 0	 0
O	 -16.818333	 -1.366795	  1.494014	 -1	 777	 778	 0	 0
O	 -15.183755	  0.582136	  0.666743	 -1	 777	 783	 0	 0
O	 -15.157235	 -1.115153	  3.568193	 -1	 778	 784	 0	 0
O	 -10.889151	 -0.024985	  3.587465	 -1	 779	 780	 0	 0
O	 -8.949190	 -1.026043	  2.110706	 -1	 780	 733	 0	 0
O	 -9.140255	  0.979260	 -2.015845	 -1	 781	 734	 0	 0
O	 -10.841452	  2.614528	 -0.805367	 -1	 781	 782	 0	 0
O	 -10.247447	  1.097629	  1.270290	 -1	 780	 782	 0	 0
O	 -13.113853	 -0.245454	  4.978113	 -1	 779	 784	 0	 0
O	 -12.783594	  1.600207	  0.636071	 -1	 782	 783	 0	 0
O	 -11.258240	  3.535269	  1.624431	 -1	 657	 782	 0	 0
O	 -14.017264	  1.230573	  2.967440	 -1	 783	 784	 0	 0
O	 -12.624194	 -9.750773	  8.654258	 -1	 785	 786	 0	 0
Si	 -10.135950	 -6.722411	  8.506773	 -2	 753	 677	 743	 744
Si	 -10.126266	 -8.266853	  11.232976	 -2	 745	 1279	 743	 752
Si	 -9.835906	 -5.986316	  13.234475	 -2	 746	 571	 1301	 752
Si	 -10.855578	 -3.337416	  11.965560	 -2	 569	 746	 747	 751
Si	 -13.422902	 -1.654494	  12.199159	 -2	 747	 748	 1262	 1296
Si	 -13.418972	 -0.339766	  9.270866	 -2	 748	 749	 1294	 1295
Si	 -10.854608	 -1.113936	  7.703682	 -2	 570	 755	 749	 750
Si	 -9.983496	 -3.697276	  8.993590	 -2	 753	 754	 750	 751
Si	 -16.415623	 -0.373487	  0.265795	 -2	 1298	 1299	 756	 757
Si	 -16.577352	 -1.718728	  3.066410	 -2	 1297	 1300	 756	 758
Si	 -11.546997	  0.193389	  5.050095	 -2	 755	 604	 764	 759
Si	 -9.660973	  0.351885	  2.593883	 -2	 602	 763	 759	 760
Si	 -9.511816	  2.540953	 -1.731316	 -2	 761	 762	 603	 1133
Si	 -11.281414	  2.213221	  0.699244	 -2	 762	 763	 765	 766
Si	 -14.206823	  1.638047	  1.400708	 -2	 1302	 757	 765	 767
Si	 -14.441494	  0.214661	  4.170782	 -2	 764	 758	 767	 1303
Si	 -12.332270	 -8.740342	  7.410087	 -2	 1289	 1305	 744	 768
Si	 -12.263989	 -10.190534	  10.181691	 -2	 745	 1290	 1304	 768
O	  2.301035	 -16.457282	  1.596179	 -1	 805	 806	 0	 0
O	  0.932968	 -15.298520	  3.495024	 -1	 806	 720	 0	 0
O	  3.580992	 -15.087387	  3.453702	 -1	 308	 806	 0	 0
O	  2.703481	 -10.038266	 -9.196885	 -1	 812	 1176	 0	 0
O	  0.416463	 -13.947912	 -8.520393	 -1	 807	 808	 0	 0
O	  0.259719	 -15.404891	 -6.290156	 -1	 809	 808	 0	 0
O	  0.410331	 -11.318316	 -8.781128	 -1	 812	 807	 0	 0
O	  0.335742	 -13.663589	 -4.274876	 -1	 809	 815	 0	 0
O	  1.851258	 -8.983623	 -4.397933	 -1	 810	 811	 0	 0
O	  2.603992	 -12.038542	 -7.484520	 -1	 812	 813	 0	 0
O	  2.329817	 -13.747965	 -2.525835	 -1	 814	 815	 0	 0
O	  2.822382	 -13.115369	 -5.049776	 -1	 813	 815	 0	 0
O	  4.417872	 -11.123580	 -5.828391	 -1	 323	 813	 0	 0
O	  4.877959	 -13.555563	 -1.792479	 -1	 324	 814	 0	 0
O	  3.179601	 -7.891872	 -6.395444	 -1	 322	 811	 0	 0
O	  1.351332	 -9.756587	 -6.895211	 -1	 811	 812	 0	 0
O	  1.428988	 -11.438016	 -3.488642	 -1	 810	 815	 0	 0
O	  3.231450	 -15.234790	 -0.548512	 -1	 805	 814	 0	 0
Si	  3.113942	 -16.669268	  0.208014	 -2	 1308	 787	 804	 1433
Si	  2.318606	 -16.065667	  3.165343	 -2	 1426	 787	 788	 789
Si	 -0.371796	 -12.684225	 -9.160639	 -2	 793	 1318	 791	 1312
Si	  0.404463	 -15.443803	 -7.910323	 -2	 1309	 791	 1311	 792
Si	 -0.437066	 -14.944215	 -4.889031	 -2	 1313	 794	 1310	 792
Si	  1.859563	 -9.930433	 -3.080256	 -2	 1195	 795	 803	 296
Si	  1.744603	 -8.503502	 -5.938872	 -2	 801	 802	 795	 1196
Si	  1.773696	 -10.778226	 -8.084373	 -2	 793	 802	 796	 790
Si	  3.631025	 -12.464595	 -6.305185	 -2	 1314	 796	 798	 799
Si	  3.622028	 -14.565720	 -1.978148	 -2	 1315	 804	 797	 800
Si	  1.737473	 -12.986327	 -3.834232	 -2	 794	 803	 797	 798
O	 -7.061067	  1.135805	 -12.211062	 -1	 867	 868	 0	 0
O	 -8.430500	  2.295082	 -10.313150	 -1	 868	 1136	 0	 0
O	  0.321603	 -6.326499	 -11.985061	 -1	 869	 870	 0	 0
O	 -8.596150	 -0.169527	 -6.637402	 -1	 1137	 871	 0	 0
O	 -6.511080	 -1.432316	 -7.672178	 -1	 871	 872	 0	 0
O	 -6.915950	  0.194106	 -9.717934	 -1	 868	 872	 0	 0
O	 -5.781110	  2.505700	 -10.353539	 -1	 481	 868	 0	 0
O	 -6.150645	  0.627245	 -6.023493	 -1	 484	 871	 0	 0
O	 -2.994350	  2.149780	 -12.623791	 -1	 876	 480	 0	 0
O	 -4.783044	  0.295547	 -13.293617	 -1	 867	 876	 0	 0
O	 -4.762298	 -1.414992	 -9.666496	 -1	 875	 872	 0	 0
O	 -1.262144	 -6.617669	 -14.124566	 -1	 869	 895	 0	 0
O	 -1.434163	 -8.076308	 -11.011187	 -1	 870	 896	 0	 0
O	 -0.556360	 -3.987833	 -9.600215	 -1	 873	 874	 0	 0
O	 -2.182761	 -1.919519	 -9.573803	 -1	 874	 875	 0	 0
O	 -3.107791	 -0.111134	 -11.276665	 -1	 875	 876	 0	 0
O	 -2.255562	 -0.124083	 -13.779995	 -1	 876	 877	 0	 0
O	 -0.178038	 -1.738699	 -14.186037	 -1	 877	 878	 0	 0
O	 -0.612785	 -2.317296	 -11.658074	 -1	 874	 878	 0	 0
O	 -0.029359	 -6.563519	 -9.373538	 -1	 873	 870	 0	 0
O	 -0.389137	 -4.253884	 -13.481089	 -1	 869	 878	 0	 0
O	  1.750654	 -2.856112	 -12.776934	 -1	 482	 878	 0	 0
O	 -0.646201	  0.150117	 -15.881118	 -1	 884	 877	 0	 0
O	 -8.946300	  3.645051	 -22.328878	 -1	 879	 880	 0	 0
O	 -7.576005	  1.423296	 -22.134481	 -1	 881	 880	 0	 0
O	 -6.684509	 -0.468576	 -20.513144	 -1	 881	 882	 0	 0
O	 -9.102383	  2.188197	 -20.097397	 -1	 883	 880	 0	 0
O	 -8.951771	  6.274772	 -22.588369	 -1	 889	 879	 0	 0
O	 -9.027772	  3.929534	 -18.082173	 -1	 883	 894	 0	 0
O	 -5.049932	  1.480355	 -21.340415	 -1	 881	 891	 0	 0
O	 -5.024120	 -0.217537	 -18.439332	 -1	 882	 892	 0	 0
O	 -0.756036	  0.872631	 -18.420060	 -1	 884	 885	 0	 0
O	  1.184633	 -0.127824	 -19.896453	 -1	 1181	 885	 0	 0
O	 -7.510797	  8.609943	 -18.206051	 -1	 886	 887	 0	 0
O	 -0.113623	  1.995848	 -20.736869	 -1	 885	 888	 0	 0
O	 -2.979325	  0.652127	 -17.029356	 -1	 892	 884	 0	 0
O	 -2.649770	  2.498426	 -21.371088	 -1	 891	 888	 0	 0
O	 -1.124417	  4.433488	 -20.382727	 -1	 525	 888	 0	 0
O	 -6.758818	  5.553942	 -21.292128	 -1	 889	 890	 0	 0
O	 -4.687509	  4.037997	 -20.694834	 -1	 890	 891	 0	 0
O	 -3.883440	  2.128792	 -19.039719	 -1	 891	 892	 0	 0
O	 -5.347118	  1.861559	 -16.841510	 -1	 892	 893	 0	 0
O	 -7.033698	  3.845158	 -16.333132	 -1	 893	 894	 0	 0
O	 -6.539720	  4.477719	 -18.857017	 -1	 890	 894	 0	 0
O	 -4.944230	  6.469507	 -19.635632	 -1	 890	 524	 0	 0
O	 -4.484851	  4.036921	 -15.600087	 -1	 893	 527	 0	 0
O	 -6.183205	  9.701854	 -20.202374	 -1	 523	 887	 0	 0
O	 -8.010769	  7.836501	 -20.702451	 -1	 889	 887	 0	 0
O	 -7.934527	  6.155107	 -17.295939	 -1	 886	 894	 0	 0
O	 -6.132064	  2.358333	 -14.355809	 -1	 867	 893	 0	 0
O	 -2.489667	 -8.853192	 -13.353211	 -1	 895	 896	 0	 0
Si	 -6.248821	  0.923694	 -13.600470	 -2	 825	 1437	 865	 816
Si	 -7.044200	  1.528059	 -10.641588	 -2	 817	 821	 822	 816
Si	 -0.001423	 -5.824830	 -13.500697	 -2	 818	 827	 836	 1154
Si	  0.007557	 -7.368634	 -10.774183	 -2	 818	 835	 828	 1155
Si	 -7.077310	 -0.665270	 -6.353577	 -2	 819	 820	 684	 823
Si	 -6.326220	 -1.263470	 -9.280671	 -2	 826	 820	 821	 1436
Si	  0.297917	 -5.088097	 -8.772684	 -2	 361	 835	 829	 1198
Si	 -0.722463	 -2.439800	 -10.041965	 -2	 834	 829	 830	 359
Si	 -3.289083	 -0.757516	 -9.808677	 -2	 826	 349	 830	 831
Si	 -3.285149	  0.558453	 -12.736292	 -2	 825	 824	 831	 832
Si	 -0.721493	 -0.216320	 -14.303843	 -2	 833	 360	 838	 832
Si	  0.149619	 -2.799660	 -13.013936	 -2	 833	 834	 836	 837
Si	 -9.734606	  4.908259	 -22.968246	 -2	 843	 1325	 839	 1331
Si	 -8.957638	  2.149285	 -21.717564	 -2	 842	 1324	 839	 840
Si	 -6.282508	  0.524129	 -21.741731	 -2	 1321	 841	 845	 840
Si	 -6.443529	 -0.820509	 -18.940749	 -2	 841	 1322	 846	 1320
Si	 -9.799168	  2.648873	 -18.696272	 -2	 842	 1323	 844	 1326
Si	 -1.413178	  1.090367	 -16.957741	 -2	 418	 851	 838	 847
Si	  0.472142	  1.249501	 -19.413642	 -2	 417	 850	 847	 848
Si	 -7.503952	  7.662690	 -16.887553	 -2	 849	 435	 1128	 864
Si	 -7.618911	  9.089621	 -19.746169	 -2	 849	 1394	 862	 863
Si	 -1.147590	  3.111440	 -21.307915	 -2	 850	 852	 853	 1328
Si	 -7.589109	  6.815500	 -21.891304	 -2	 1319	 843	 854	 863
Si	 -5.731076	  5.128492	 -20.112426	 -2	 859	 860	 854	 855
Si	 -4.072295	  2.535628	 -20.606762	 -2	 852	 845	 855	 856
Si	 -4.307675	  1.111639	 -17.837054	 -2	 857	 851	 846	 856
Si	 -5.741487	  3.027403	 -15.785445	 -2	 857	 858	 865	 861
Si	 -7.625336	  4.606158	 -17.641840	 -2	 858	 859	 844	 864
Si	 -2.199155	 -7.842726	 -14.597439	 -2	 866	 827	 1333	 1411
Si	 -2.130875	 -9.292918	 -11.825834	 -2	 866	 1412	 828	 1332
O	 -6.460210	  4.573979	 -6.746329	 -1	 972	 973	 0	 0
O	  4.397097	  14.782197	 -0.999616	 -1	 974	 975	 0	 0
O	  2.812594	  14.489946	 -3.138610	 -1	 974	 1000	 0	 0
O	  2.640575	  13.031307	 -0.025231	 -1	 1001	 975	 0	 0
O	 -7.272091	  7.558553	 -3.729764	 -1	 977	 976	 0	 0
O	 -9.244098	  9.212276	 -4.191894	 -1	 977	 978	 0	 0
O	 -10.171139	  11.090701	 -5.817897	 -1	 978	 979	 0	 0
O	 -8.668130	  11.268112	 -7.993437	 -1	 979	 980	 0	 0
O	 -6.994768	  9.329331	 -8.639997	 -1	 980	 981	 0	 0
O	 -7.582598	  8.594426	 -6.170088	 -1	 977	 981	 0	 0
O	 -9.286533	  6.774723	 -5.244111	 -1	 977	 1139	 0	 0
O	 -9.565377	  9.143489	 -9.302557	 -1	 980	 1142	 0	 0
O	 -7.853719	  3.536696	 -4.767059	 -1	 1138	 973	 0	 0
O	 -5.932250	  5.321214	 -4.258167	 -1	 973	 976	 0	 0
O	 -6.042994	  7.021515	 -7.710941	 -1	 972	 981	 0	 0
O	 -7.993527	  10.883776	 -10.535448	 -1	 980	 992	 0	 0
O	 -5.105389	  6.930686	 -2.355718	 -1	 976	 1008	 0	 0
O	 -5.076599	  9.254041	 -6.791983	 -1	 981	 1013	 0	 0
O	 -8.997000	  11.765328	 -3.515053	 -1	 978	 1010	 0	 0
O	 -9.041160	  13.413013	 -6.502649	 -1	 979	 1011	 0	 0
O	 -1.808714	  17.368112	 -9.990036	 -1	 982	 983	 0	 0
O	 -0.098207	  16.162670	 -11.592768	 -1	 499	 983	 0	 0
O	 -1.608023	  18.117492	 -12.524001	 -1	 983	 984	 0	 0
O	 -4.754621	  14.097914	 -11.626019	 -1	 985	 986	 0	 0
O	 -2.788417	  13.512779	 -13.234885	 -1	 986	 504	 0	 0
O	 -4.411235	  15.506410	 -13.880729	 -1	 986	 987	 0	 0
O	 -2.734210	  15.787009	 -11.868588	 -1	 986	 983	 0	 0
O	 -2.359659	  18.674679	 -7.772041	 -1	 982	 991	 0	 0
O	 -4.289079	  17.272898	 -8.927844	 -1	 989	 982	 0	 0
O	 -6.147475	  15.787540	 -10.124299	 -1	 985	 989	 0	 0
O	 -1.751943	  20.749808	 -12.040289	 -1	 990	 984	 0	 0
O	 -3.932779	  19.416388	 -12.686451	 -1	 988	 984	 0	 0
O	 -5.831628	  17.780990	 -13.617960	 -1	 987	 988	 0	 0
O	 -1.803682	  10.801545	  0.913044	 -1	 1002	 644	 0	 0
O	 -4.271856	  8.492529	 -0.366000	 -1	 648	 1008	 0	 0
O	 -7.049515	  13.362953	 -10.502587	 -1	 985	 992	 0	 0
O	 -6.941634	  15.753980	 -14.766599	 -1	 987	 1014	 0	 0
O	 -5.584869	  18.230083	 -11.009765	 -1	 988	 989	 0	 0
O	 -2.609724	  20.639517	 -9.528066	 -1	 990	 991	 0	 0
O	 -0.975147	  22.588448	 -10.355337	 -1	 996	 990	 0	 0
O	 -0.948674	  20.890680	 -7.453010	 -1	 997	 991	 0	 0
O	 -6.920582	  11.904837	 -12.705994	 -1	 993	 992	 0	 0
O	 -5.614638	  10.770299	 -14.647393	 -1	 521	 993	 0	 0
O	 -7.143543	  12.894387	 -15.187438	 -1	 993	 1014	 0	 0
O	 -8.249339	  10.554003	 -14.516954	 -1	 993	 1147	 0	 0
O	 -11.068085	  10.974406	 -12.345514	 -1	 1146	 995	 0	 0
O	 -9.261264	  12.857407	 -11.828936	 -1	 995	 992	 0	 0
O	 -9.427116	  14.711086	 -15.116622	 -1	 994	 1014	 0	 0
O	 -7.366727	  5.557817	 -2.015111	 -1	 976	 656	 0	 0
O	 -11.139945	  13.235064	 -13.696955	 -1	 994	 995	 0	 0
O	  0.191344	  23.236885	 -8.054640	 -1	 996	 997	 0	 0
O	 -1.084820	  9.603570	 -4.022497	 -1	 998	 999	 0	 0
O	  1.585071	  12.254423	 -2.367255	 -1	 1001	 1000	 0	 0
O	 -1.615881	  12.388725	 -1.179536	 -1	 1002	 1003	 0	 0
O	 -3.526693	  14.196581	 -1.285240	 -1	 1003	 1004	 0	 0
O	 -4.344578	  16.095466	 -2.937598	 -1	 1004	 1005	 0	 0
O	 -3.138514	  16.425554	 -5.276041	 -1	 1005	 1006	 0	 0
O	 -1.417909	  14.489417	 -5.862767	 -1	 1006	 1007	 0	 0
O	 -2.094019	  13.678268	 -3.445985	 -1	 1003	 1007	 0	 0
O	 -5.106602	  9.566509	 -2.611655	 -1	 1009	 1008	 0	 0
O	 -6.443656	  11.800471	 -2.797623	 -1	 1009	 1010	 0	 0
O	 -7.355841	  13.666810	 -4.448810	 -1	 1010	 1011	 0	 0
O	 -6.434531	  13.377309	 -6.922531	 -1	 1011	 1012	 0	 0
O	 -4.368120	  11.770254	 -7.311359	 -1	 1012	 1013	 0	 0
O	 -4.913708	  11.047276	 -4.828132	 -1	 1009	 1013	 0	 0
O	 -3.799151	  11.850659	 -2.548329	 -1	 1009	 1003	 0	 0
O	 -3.978138	  14.300704	 -6.592476	 -1	 1012	 1006	 0	 0
[...]
 1146      Si    -11.1611380000     9.4384220000   -12.8574440000
 1147      Si     -9.2758180000     9.5975560000   -15.3133450000
 1148      Si    -10.8962590000    11.4588920000   -17.2079840000
 1149      Si    -13.8209640000    10.8830800000   -16.5068310000
 1150      Si    -14.0556350000     9.4596940000   -13.7367560000
 1151      Si    -11.9471150000     0.5053290000   -10.4971410000
 1152      Si    -11.8787880000    -0.9443850000    -7.7264130000
 1153      O       2.6868940000    -7.2122500000   -16.3113590000
 1154      O       1.3181690000    -6.0523700000   -14.4130810000
 1155      O       1.1518110000    -8.5175820000   -10.7376990000
 1156      O       3.2375890000    -9.7797680000   -11.7721090000
 1157      O       2.8320110000    -8.1539490000   -13.8182320000
 1158      O       3.9668500000    -5.8423550000   -14.4538370000
 1159      O       3.5973150000    -7.7208100000   -10.1237900000
 1160      O       0.8016180000    -4.7022410000   -26.4276210000
 1161      O       0.6455780000    -6.1598580000   -24.1976950000
 1162      O       0.7968980000    -2.0726800000   -26.6883000000
 1163      O       0.7208970000    -4.4179180000   -22.1821040000
 1164      O       2.2378250000     0.2620130000   -22.3051050000
 1165      O       2.9898510000    -2.7935100000   -25.3920590000
 1166      O       2.7149710000    -4.5022940000   -20.4330630000
 1167      O       3.2082410000    -3.8703370000   -22.9573150000
 1168      O       4.8030260000    -1.8779090000   -23.7356190000
 1169      O       5.2638180000    -4.3105310000   -19.7000170000
 1170      O       3.5647560000     1.3537990000   -24.3026720000
 1171      O       1.7364870000    -0.5109160000   -24.8024380000
 1172      O       1.8141420000    -2.1923450000   -21.3958700000
 1173      O       3.6166050000    -5.9891190000   -18.4557400000
 1174      Si      3.4998010000    -7.4242360000   -17.6995240000
 1175      Si      2.7037600000    -6.8199960000   -14.7418850000
 1176      Si      2.6713580000    -9.0127220000   -10.4535080000
 1177      Si      3.4217410000    -9.6115250000   -13.3809690000
 1178      Si      0.0140630000    -3.4391930000   -27.0681770000
 1179      Si      0.7903220000    -6.1987700000   -25.8178620000
 1180      Si     -0.0512070000    -5.6991820000   -22.7965690000
 1181      Si      2.2447170000    -0.6847620000   -20.9874840000
 1182      Si      2.1297580000     0.7421690000   -23.8461000000
 1183      Si      2.1588510000    -1.5325550000   -25.9916010000
 1184      Si      4.0168840000    -3.2195630000   -24.2127230000
 1185      Si      4.0071820000    -5.3200490000   -19.8853760000
 1186      Si      2.1226280000    -3.7406560000   -21.7414600000
 1187      O       6.3073040000    -6.1229300000    -1.1168110000
 1188      O       6.5052640000    -4.6687190000    -4.2266600000
 1189      O       5.1520040000    -6.1883810000    -5.8653100000
 1190      O       5.5199660000    -8.5143120000    -1.7958580000
 1191      O       2.4765780000    -0.7888990000    -7.8296950000
 1192      O       3.8164190000    -3.0262380000    -8.3580980000
 1193      O       4.5592560000    -1.5050160000    -6.4808880000
 1194      O      -1.1411910000    -8.3730400000    -0.5128320000
 1195      O       0.7994790000    -9.3734950000    -1.9892250000
 1196      O       0.6084140000    -7.3681920000    -6.1157760000
 1197      O      -3.0363380000    -6.7472100000    -3.4639160000
 1198      O      -0.1587460000    -5.0624330000    -7.2208400000
 1199      H      -5.6738040000    -6.3315900000    12.8632350000
 1200      H      -3.9529370000    -7.9901400000    11.6775980000
 1201      H       4.8413980000     3.3456030000    18.1561610000
 1202      H       6.9264680000     2.0828140000    17.1213850000
 1203      H       8.6759540000     2.0995000000    15.1267560000
 1204      H      13.4088930000    -3.0490270000    15.4197150000
 1205      H       7.6557760000     6.0207060000    14.4387810000
 1206      H       7.5597860000    -6.7920560000    14.7212180000
 1207      H       5.0909030000    -9.1016750000    13.4418080000
 1208      H      10.4575610000     4.1671320000     7.7629640000
 1209      H       1.9953740000   -12.0352700000    11.7921300000
 1210      H       8.4933180000     9.9846380000     5.1579310000
 1211      H       8.9527440000     7.5525300000     9.1926000000
 1212      H       5.5037260000     9.6695990000     7.4973140000
 1213      H      -0.6988050000    -1.7307120000    15.3285050000
 1214      H       1.3880310000    -3.0531230000    14.3365670000
 1215      H       2.5836770000     1.3117610000    17.0270000000
 1216      H       4.3142260000    -0.2925850000    15.8098640000
 1217      H       4.0741570000   -14.6796460000     8.7629380000
 1218      H      14.5893590000    -5.0024520000    14.0558640000
 1219      H      16.6744280000    -6.2652410000    13.0210880000
 1220      H      17.4044450000    -2.3267460000    10.3388500000
 1221      H       8.0516770000   -13.4950000000     1.8054910000
 1222      H      18.4031720000    -4.5367750000     7.4000160000
 1223      H      18.4239140000    -6.2485550000    11.0264590000
 1224      H      12.6484150000    -5.8182890000    -2.9377070000
 1225      H      12.2409780000    -8.0773540000     0.9843430000
 1226      H      15.6095030000    -3.4096290000    -1.4412150000
 1227      H      15.5596610000    -4.9966320000     2.6508940000
 1228      H       7.0944710000   -10.9402180000    -5.7510620000
 1229      H       7.3517820000   -12.7179420000    -1.4204690000
 1230      H      18.4979990000    -0.7949280000    -0.0015680000
 1231      H      17.8390950000    -2.9720040000     3.8514460000
 1232      H      18.2412790000     1.6365830000     1.0576330000
 1233      H      18.7007040000    -0.7955250000     5.0923020000
 1234      H      15.2523940000     1.3221470000     3.3973830000
 1235      H       9.0491550000   -10.0787670000    11.2282080000
 1236      H      12.3323450000    -7.0356910000    12.9270700000
 1237      H      14.0628940000    -8.6400370000    11.7099330000
 1238      H      11.4674620000   -10.3064580000     3.5189130000
 1239      H      13.4048130000    -8.9369470000     4.7042920000
 1240      H      15.2834720000    -7.4205390000     5.8378000000
 1241      H      15.0938750000    -9.3319560000     9.3589820000
 1242      H       8.0423440000    15.2663410000    -3.4683910000
 1243      H       7.6727620000    13.3874080000     0.8625320000
 1244      H       9.0611090000    11.3451710000    -2.7804720000
 1245      H      -4.1007940000     9.8847420000   -21.8126700000
 1246      H       7.1634210000    20.3154980000   -16.1190340000
 1247      H      13.7940480000     6.1966440000    -2.4875130000
 1248      H       9.8182560000    10.1176960000   -19.5422720000
 1249      H       7.7228450000    11.4640410000   -18.5867720000
 1250      H       6.5973740000     7.0765500000   -21.2937750000
 1251      H       4.8282130000     8.6626460000   -20.0783870000
 1252      H       4.3048760000     5.0118360000   -22.4222410000
 1253      H       2.1668180000     6.3156290000   -21.4534490000
 1254      H      10.8427160000    13.4128030000   -10.1442640000
 1255      H       8.8785200000    19.2307870000   -12.7501740000
 1256      H       9.3386030000    16.7975620000    -8.7149390000
 1257      H       5.8889270000    18.9157480000   -10.4107910000
 1258      H       1.5778480000    15.1684200000   -18.9717350000
 1259      H       4.0504900000    17.4784810000   -17.6975860000
 1260      H     -11.4449520000     3.2005070000    10.0057200000
 1261      H     -11.7344600000     1.4079060000    14.4244820000
 1262      H     -13.2020810000    -0.5013430000    13.3175820000
 1263      H       3.6602240000     5.2984250000    19.5196460000
 1264      H      -2.1888830000     1.5553960000    18.8211490000
 1265      H      -4.6570570000    -0.7536200000    17.5421050000
 1266      H      -6.8482140000    10.8772180000     5.2625210000
 1267      H      -7.2549470000     8.6175150000     9.1842610000
 1268      H      -3.8871260000    13.2858780000     6.7590140000
 1269      H      -3.9369680000    11.6988750000    10.8511220000
 1270      H      -7.7525860000    -3.6872150000    15.8924270000
 1271      H     -12.4014070000     5.7551290000     2.4479790000
 1272      H     -12.1448470000     3.9775650000     6.7797590000
 1273      H      -8.0291200000     6.3895280000    11.7182650000
 1274      H      -6.0917690000     7.7590380000    12.9036430000
 1275      H      -4.2131580000     9.2749680000    14.0380280000
 1276      H      -8.5110070000     4.3645290000    16.0045950000
 1277      H      -6.3992410000     5.8049320000    16.7282250000
 1278      H      -4.4020030000     7.3633910000    17.5580230000
 1279      H      -8.9820080000    -9.4145600000    11.2701370000
 1280      H      -6.8969390000   -10.6773490000    10.2353610000
 1281      H      -6.8202560000   -11.6779690000    -0.8504580000
 1282      H      -6.2118820000    -9.6039550000    -5.1181400000
 1283      H      -8.0117530000    -9.4092180000    -0.1339570000
 1284      H     -10.1187680000    -7.8455020000     0.2518770000
 1285      H     -10.6046250000    -7.8932910000    -4.4444640000
 1286      H     -11.6243520000    -4.2420260000    -4.4574830000
 1287      H     -11.7276070000    -6.1512710000    -1.0057720000
 1288      H      -0.5439010000   -14.3081040000    10.6863880000
 1289      H     -11.6273890000    -9.5582510000     6.2045520000
 1290      H     -11.2397300000   -11.4484020000    10.1409760000
 1291      H     -10.1580710000    -4.5273530000    -6.6763830000
 1292      H      -3.8873970000   -18.9477430000     6.8456260000
 1293      H      -3.9854500000   -16.4666020000     2.7794210000
 1294      H     -13.1281730000     1.2515610000     9.3833680000
 1295      H     -14.9168630000    -0.6014310000     8.7142190000
 1296      H     -14.8961220000    -2.3132110000    12.3406620000
 1297      H     -16.5682210000    -3.3311550000     3.2491620000
 1298      H     -15.9605510000    -1.2565040000    -1.0182090000
 1299      H     -17.7105330000     0.5257150000    -0.1270110000
 1300      H     -17.7604220000    -1.0617660000     3.9659740000
 1301      H     -10.2925690000    -5.9606520000    14.7863190000
 1302      H     -14.8213330000     3.1397780000     1.3123250000
 1303      H     -15.4809410000     0.9633400000     5.1656490000
 1304      H     -13.6353570000   -10.5996880000    10.9459230000
 1305      H     -13.7334100000    -8.1185470000     6.8797190000
 1306      H       0.7659520000   -17.7626150000     7.1698390000
 1307      H       6.3677050000   -15.4437860000     1.1843270000
 1308      H       4.5797660000   -17.2969380000     0.5139910000
 1309      H       1.7860960000   -16.1697920000    -8.3272400000
 1310      H      -0.3708080000   -16.1935570000    -3.8484200000
 1311      H      -0.8566640000   -16.2413460000    -8.5447620000
 1312      H      -1.8756830000   -12.5894780000    -8.5574140000
 1313      H      -1.9789850000   -14.4992010000    -5.1048260000
 1314      H       4.6745450000   -13.5555690000    -6.8867160000
 1315      H       4.0156880000   -15.7321670000    -3.0345790000
 1316      H      -1.8794290000   -17.9063060000     2.1042550000
 1317      H      -1.4910610000   -19.7958540000     6.0410450000
 1318      H      -0.4101110000   -12.8754080000   -10.7766800000
 1319      H      -6.6599860000     7.5553350000   -23.0050590000
 1320      H      -6.4343970000    -2.4329360000   -18.7579970000
 1321      H      -5.8267280000    -0.3582850000   -23.0253680000
 1322      H      -7.6258940000    -0.1641850000   -18.0414950000
 1323      H      -9.7329100000     1.3995310000   -17.6556610000
 1324      H     -10.2194700000     1.3523800000   -22.3516920000
 1325      H     -11.2391980000     5.0036450000   -22.3647110000
 1326      H     -11.3417480000     3.0937620000   -18.9133110000
 1327      H       0.9935690000     1.8774790000   -24.0230040000
 1328      H      -0.7076290000     3.5127470000   -22.8125260000
 1329      H     -11.2422340000    -0.3125800000   -11.7026750000
 1330      H     -10.8538710000    -2.2033690000    -7.7665630000
 1331      H      -9.7722130000     4.7176800000   -24.5839210000
 1332      H      -3.5008300000    -9.7021080000   -11.0615460000
 1333      H      -3.6002950000    -7.2209310000   -15.1278070000
 1334      H     -11.0590890000    12.4467810000    -7.9011410000
 1335      H     -11.3486010000    10.6529380000    -3.4830560000
 1336      H     -12.8162220000     8.7436890000    -4.5899560000
 1337      H       4.0453790000    14.5440960000     1.6124180000
 1338      H       0.0696340000    18.4656260000   -15.4432180000
 1339      H      -2.0251150000    19.8120960000   -14.4864740000
 1340      H      -3.1505870000    15.4246050000   -17.1934770000
 1341      H      -4.9204560000    17.0100980000   -15.9784560000
 1342      H      -6.4630130000    20.1233670000   -12.6455840000
 1343      H      -6.8697930000    17.8631860000    -8.7229670000
 1344      H      -3.5012210000    22.5313890000   -11.1494020000
 1345      H      -3.5511100000    20.9439080000    -7.0564160000
 1346      H      -5.4430850000    13.3598910000   -18.3219430000
 1347      H      -7.5818510000    14.6630810000   -17.3535180000
 1348      H       1.0954590000    21.7602200000    -6.0442770000
 1349      H     -12.0162520000    15.0008000000   -15.4592490000
 1350      H     -11.7596930000    13.2232360000   -11.1274690000
 1351      H      -0.6127710000    25.1456110000    -9.7088780000
 1352      H      -1.2723800000    22.9691740000    -5.8555540000
 1353      H      -7.6432610000    15.6345600000    -6.1892740000
 1354      H      -5.7066150000    17.0047090000    -5.0035850000
 1355      H      -3.8272990000    18.5200000000    -3.8695100000
 1356      H      -8.1258530000    13.6102000000    -1.9026330000
 1357      H      -6.0133350000    15.0504430000    -1.1801910000
 1358      H      -4.0168480000    16.6090620000    -0.3492050000
 1359      H      17.7896000000     6.9189250000    -7.5683780000
 1360      H      17.4207220000     5.0393530000    -3.2377650000
 1361      H       8.4368310000    -4.2493290000   -16.1017370000
 1362      H      18.7883740000     4.7093750000   -10.5080890000
 1363      H       8.1473240000    -6.0419300000   -11.6829740000
 1364      H       6.6804070000    -7.9518170000   -12.7901850000
 1365      H      18.8090690000     2.9971160000    -6.8807690000
 1366      H       5.6471200000     1.5362090000   -25.9120900000
 1367      H      16.9120890000    11.9680460000   -20.2189650000
 1368      H      13.0335700000     3.4273820000   -20.8449350000
 1369      H      12.6268370000     1.1676790000   -16.9231950000
 1370      H      15.9946580000     5.8360420000   -19.3484430000
 1371      H      15.9448150000     4.2490390000   -15.2563340000
 1372      H       7.4803770000    -1.6947070000   -23.6594770000
 1373      H       7.7369360000    -3.4722710000   -19.3276970000
 1374      H      18.8838580000     8.4501050000   -17.9091070000
 1375      H      18.2242490000     6.2736670000   -14.0557820000
 1376      H      18.6264330000    10.8822530000   -16.8495940000
 1377      H      19.0872710000     8.4501100000   -12.8148700000
 1378      H      15.6375490000    10.5678180000   -14.5098450000
 1379      H      11.8533680000    -1.0609470000   -14.3895020000
 1380      H      13.7899680000     0.3087240000   -13.2029360000
 1381      H      15.6686260000     1.8251320000   -12.0694280000
 1382      H      11.3707760000    -3.0853070000   -10.1028610000
 1383      H      13.4832470000    -1.6455430000    -9.3795420000
 1384      H      15.4797810000    -0.0864450000    -8.5494330000
 1385      H      11.3265170000     6.8209680000   -23.0716660000
 1386      H      13.7984500000     9.1304260000   -21.7978830000
 1387      H     -12.7430190000    10.4972320000    -8.5238600000
 1388      H     -14.5310050000     8.6436020000    -9.1933190000
 1389      H     -14.5102630000     6.9318220000    -5.5668760000
 1390      H     -16.1830660000     5.9145160000   -14.6580660000
 1391      H     -15.5753960000     7.9891670000   -18.9254370000
 1392      H     -17.3246740000     9.7707480000   -18.0345500000
 1393      H     -17.3745160000     8.1837450000   -13.9424410000
 1394      H      -8.7551000000    10.2249310000   -19.9230730000
 1395      H     -10.4555930000    11.8595610000   -18.7129060000
 1396      H     -14.4361780000    12.3854490000   -16.5949030000
 1397      H     -15.0957870000    10.2090110000   -12.7415790000
 1398      H     -13.2494980000    -1.3546560000    -6.9616150000
 1399      H     -13.3475520000     1.1264860000   -11.0278200000
 1400      H       6.7535640000    -6.1987530000   -16.7232120000
 1401      H       4.9649200000    -8.0512670000   -17.3932370000
 1402      H       4.9856620000    -9.7630470000   -13.7667940000
 1403      H       3.0886830000    -0.7921170000   -27.1049900000
 1404      H       2.1719550000    -6.9247590000   -26.2347780000
 1405      H       0.0143460000    -6.9478860000   -21.7556480000
 1406      H      -0.4715100000    -6.9956750000   -26.4519890000
 1407      H      -1.4905290000    -3.3438070000   -26.4646410000
 1408      H      -1.5937830000    -5.2530520000   -23.0129310000
 1409      H       5.0604040000    -4.3105370000   -24.7942550000
 1410      H       4.4008420000    -6.4864960000   -20.9418070000
 1411      H      -1.4942740000    -8.6606350000   -15.8029730000
 1412      H      -1.1059070000   -10.5501830000   -11.8661830000
 1413      H      -0.0249560000    -3.6297370000   -28.6839080000
 1414      H      -1.5095680000    11.5764740000    10.3801080000
 1415      H      -1.5193200000    13.2286410000     7.5450270000
 1416      H       3.3463340000     7.4156240000    15.4190630000
 1417      H       3.7314890000    16.6612950000    -2.4881650000
 1418      H       5.5101200000    11.2411700000     3.9372500000
 1419      H      15.6446480000    12.1387510000   -18.0702200000
 1420      H       5.8966870000    20.4868060000   -13.9699220000
 1421      H       1.2602160000    23.6134540000   -10.2781240000
 1422      H       2.8089970000    -8.3355250000   -18.5423380000
 1423      H       2.7086270000   -10.6205770000   -14.0798770000
 1424      H      10.7197620000    -9.5184640000     8.1563530000
 1425      H       5.0922870000   -14.7090590000     5.3689100000
 1426      H       2.4428180000   -17.2205820000     3.9823080000
 1427      H      10.6237300000     6.0203310000     3.5291730000
 1428      H      13.4801580000     8.3138430000    -6.5880960000
 1429      H      13.0950030000    -0.9318280000    11.3191320000
 1430      H       8.4886790000     3.9301180000    11.4547590000
 1431      H      15.2587890000     2.8937180000    -0.1626810000
 1432      H       8.8745370000    13.1751510000    -6.4527790000
 1433      H       2.4238420000   -17.5811960000    -0.6351100000
 1434      H      -7.4251970000   -11.5187960000     7.9272820000
 1435      H      -7.3241180000    -9.2331410000     3.4651880000
 1436      H      -7.0386290000    -2.2731610000    -9.9798900000
 1437      H      -6.9382590000     0.0118910000   -14.4423510000
 1438      H      11.0088840000    15.2660020000   -14.3780550000
 ----------------------------------------------------------------
 Nuclear Repulsion Energy =     2628966.95153472 hartrees
 There are      291 alpha and      291 beta electrons
 Total job time:  37562.83s(wall), 1032629.28s(cpu) 
 Mon Oct  4 20:26:20 2021

        *************************************************************
        *                                                           *
        *  Thank you very much for using Q-Chem.  Have a nice day.  *
        *                                                           *
        *************************************************************


