62
# Point 0 Energy = -8620.55492172
C       0.0768475660     2.5929187626     -2.8672159086
C       -0.0379125959     3.1677991118     -4.2720671255
H       0.0280712642     4.2700782915     -4.2596770806
H       0.7945202395     2.8408450819     -4.9095872932
H       -0.9645569994     2.8426504725     -4.7743520132
H       1.0013576276     2.9359400802     -2.3835694120
H       0.0926745608     1.4958245929     -2.8957540433
H       -0.7624529205     2.8984066922     -2.2243171893
H       -1.4428696793     4.7127185720     -3.7765673602
Al       -1.3780121361     6.1685838665     -1.8854996830
O       -1.9477270507     5.4635522799     -0.4293198405
O       0.2357299844     5.8434132066     -2.3135062923
O       -2.1435710260     5.1541903304     -3.2550211948
O       -1.8826048050     7.7779013881     -2.1841304925
Si       -3.7007467329     4.5290818643     -3.4447007651
Si       -2.9355238479     5.8597204337     0.7853171396
Si       1.8004652294     6.0399835104     -2.0928399809
Si       -1.3329796913     9.2219160911     -1.7195027486
O       -3.4131155441     2.9630456107     -3.7213455547
O       -4.5644767743     4.8087599833     -2.1158438230
O       -4.3210357512     5.2554772383     -4.7477216225
O       -4.3838835192     5.1008205805     0.5731194307
O       -3.2091260145     7.4769255164     0.8302278290
O       2.2815221419     7.5975457763     -2.2501086759
O       2.5518412713     5.1760970637     -3.2506756676
O       -2.0881831912     9.6860016748     -0.3387953122
O       0.2900783489     9.1730166631     -1.4065756025
Si       -3.8032014448     1.3698424059     -3.7699090717
Si       -5.1532995164     4.3286579604     -0.6250643134
Si       -5.2407494953     4.9267221575     -6.0742539819
Si       -2.7410724655     9.0379413548     1.0154311430
Si       1.8824036820     9.1120787616     -1.7706763504
Si       3.8577668433     4.3023554575     -3.5880104365
Si       -1.6637792475     -0.3040930307     -5.2361769563
O       -2.4565611196     0.5070269506     -4.0612019054
O       -2.1838290247     0.1950472248     -6.7057518116
O       -4.5844821698     0.9893170388     -7.6337916120
O       -0.0879842190     0.0297079806     -5.0832610302
O       2.3484949579     0.3335359452     -4.1531793128
O       3.3902795516     2.7476936358     -3.7834529630
O       -4.8913201365     1.1677047176     -4.9769055369
O       -5.0240824134     3.3656252480     -6.5219395214
Si       -5.3657373536     1.7636551582     -6.4342454094
Si       3.7345792010     1.1574051631     -3.8858529408
Si       1.4616654028     -0.4158544629     -5.2903297928
Si       -3.2724856092     0.0517783232     -7.9288647548
O       2.2472417892     5.4870104707     -0.6094447185
O       1.9305057880     0.0344968835     -6.7908952995
O       4.7688419196     0.9117383831     -5.1366857383
O       2.7682262427     9.4785622087     -0.4421043828
O       4.9766154275     4.3842053419     -2.4024942337
O       4.4942795960     4.8819245594     -4.9615292774
Si       3.3463127531     5.6604695084     0.5919810984
O       3.8013576680     7.2280148635     0.6943895602
O       4.6610026097     4.7466975214     0.2706284935
Si       3.4385181402     8.8155524261     0.8981387615
Si       5.4466924198     3.9179465212     -0.8969884167
Si       2.9752168547     -0.1820834513     -8.0421040295
O       4.3665311265     0.6322389551     -7.7783786240
Si       5.2444521192     1.3910439962     -6.6330106932
O       5.0423545353     3.0032454401     -6.8046927567
Si       5.3657218739     4.5267225683     -6.2914684661
H       -2.4349204542     5.3595472026     2.0501264483
H       -1.6093569217     10.1935628552     -2.7594591427
H       -1.7220043436     9.0877248763     2.0703755686
H       -2.6707173951     0.5258318338     -9.1662881032
H       -3.6937573951     -1.3518881662     -8.0337681032
H       -1.9044608862     -1.7382378745     -5.0565130793
H       4.3022477897     0.6676419810     -2.6420471581
H       1.5848946859     -1.8676987891     -5.1215653062
H       -4.3360546619     0.9827169604     -2.4846516486
H       -6.7858975346     1.5156219806     -6.5627185556
H       -6.5545425077     4.7145022048     -0.5108240679
H       -5.0006625077     2.8597822048     -0.5430240679
H       -3.9060843436     9.8485648763     1.3638155686
H       2.2533537482     10.0495358689     -2.8288730309
H       -4.8300985060     5.8332273405     -7.1447992414
H       -6.6342185060     5.1487473405     -5.6875192414
H       2.7798664739     5.1678871286     1.8442195651
H       2.4680029049     8.9328537620     1.9919921781
H       5.1779768472     2.4810052896     -0.7377379962
H       2.3637788020     0.3387628918     -9.2590672452
H       3.2846988020     -1.6116371082     -8.1633472452
H       6.6328776232     1.0193730876     -6.8122997783
H       4.6760029049     9.5317737620     1.2053921781
H       6.8634168472     4.2152052896     -0.7653379962
H       6.7842592036     4.6503073734     -5.9385764001
H       4.9828992036     5.4700273734     -7.3305364001
62
# Point 1 Energy = -8620.49439366
C       0.1715571264     2.1646226126     -3.3568292155
C       -0.1323703603     3.5939693187     -3.7832800667
H       -0.1553920119     4.2743581108     -2.9137584349
H       0.6544903823     3.9946842617     -4.4363903436
H       -1.0758839420     3.6613679661     -4.3506610145
H       1.1095980778     2.1224408915     -2.7870956919
H       0.2736198602     1.5106344992     -4.2323652125
H       -0.6198166863     1.7455727221     -2.7171483395
H       -1.4428696793     4.7127185720     -3.7765673602
Al       -1.3780121361     6.1685838665     -1.8854996830
O       -1.9477270507     5.4635522799     -0.4293198405
O       0.2357299844     5.8434132066     -2.3135062923
O       -2.1435710260     5.1541903304     -3.2550211948
O       -1.8826048050     7.7779013881     -2.1841304925
Si       -3.7007467329     4.5290818643     -3.4447007651
Si       -2.9355238479     5.8597204337     0.7853171396
Si       1.8004652294     6.0399835104     -2.0928399809
Si       -1.3329796913     9.2219160911     -1.7195027486
O       -3.4131155441     2.9630456107     -3.7213455547
O       -4.5644767743     4.8087599833     -2.1158438230
O       -4.3210357512     5.2554772383     -4.7477216225
O       -4.3838835192     5.1008205805     0.5731194307
O       -3.2091260145     7.4769255164     0.8302278290
O       2.2815221419     7.5975457763     -2.2501086759
O       2.5518412713     5.1760970637     -3.2506756676
O       -2.0881831912     9.6860016748     -0.3387953122
O       0.2900783489     9.1730166631     -1.4065756025
Si       -3.8032014448     1.3698424059     -3.7699090717
Si       -5.1532995164     4.3286579604     -0.6250643134
Si       -5.2407494953     4.9267221575     -6.0742539819
Si       -2.7410724655     9.0379413548     1.0154311430
Si       1.8824036820     9.1120787616     -1.7706763504
Si       3.8577668433     4.3023554575     -3.5880104365
Si       -1.6637792475     -0.3040930307     -5.2361769563
O       -2.4565611196     0.5070269506     -4.0612019054
O       -2.1838290247     0.1950472248     -6.7057518116
O       -4.5844821698     0.9893170388     -7.6337916120
O       -0.0879842190     0.0297079806     -5.0832610302
O       2.3484949579     0.3335359452     -4.1531793128
O       3.3902795516     2.7476936358     -3.7834529630
O       -4.8913201365     1.1677047176     -4.9769055369
O       -5.0240824134     3.3656252480     -6.5219395214
Si       -5.3657373536     1.7636551582     -6.4342454094
Si       3.7345792010     1.1574051631     -3.8858529408
Si       1.4616654028     -0.4158544629     -5.2903297928
Si       -3.2724856092     0.0517783232     -7.9288647548
O       2.2472417892     5.4870104707     -0.6094447185
O       1.9305057880     0.0344968835     -6.7908952995
O       4.7688419196     0.9117383831     -5.1366857383
O       2.7682262427     9.4785622087     -0.4421043828
O       4.9766154275     4.3842053419     -2.4024942337
O       4.4942795960     4.8819245594     -4.9615292774
Si       3.3463127531     5.6604695084     0.5919810984
O       3.8013576680     7.2280148635     0.6943895602
O       4.6610026097     4.7466975214     0.2706284935
Si       3.4385181402     8.8155524261     0.8981387615
Si       5.4466924198     3.9179465212     -0.8969884167
Si       2.9752168547     -0.1820834513     -8.0421040295
O       4.3665311265     0.6322389551     -7.7783786240
Si       5.2444521192     1.3910439962     -6.6330106932
O       5.0423545353     3.0032454401     -6.8046927567
Si       5.3657218739     4.5267225683     -6.2914684661
H       -2.4349204542     5.3595472026     2.0501264483
H       -1.6093569217     10.1935628552     -2.7594591427
H       -1.7220043436     9.0877248763     2.0703755686
H       -2.6707173951     0.5258318338     -9.1662881032
H       -3.6937573951     -1.3518881662     -8.0337681032
H       -1.9044608862     -1.7382378745     -5.0565130793
H       4.3022477897     0.6676419810     -2.6420471581
H       1.5848946859     -1.8676987891     -5.1215653062
H       -4.3360546619     0.9827169604     -2.4846516486
H       -6.7858975346     1.5156219806     -6.5627185556
H       -6.5545425077     4.7145022048     -0.5108240679
H       -5.0006625077     2.8597822048     -0.5430240679
H       -3.9060843436     9.8485648763     1.3638155686
H       2.2533537482     10.0495358689     -2.8288730309
H       -4.8300985060     5.8332273405     -7.1447992414
H       -6.6342185060     5.1487473405     -5.6875192414
H       2.7798664739     5.1678871286     1.8442195651
H       2.4680029049     8.9328537620     1.9919921781
H       5.1779768472     2.4810052896     -0.7377379962
H       2.3637788020     0.3387628918     -9.2590672452
H       3.2846988020     -1.6116371082     -8.1633472452
H       6.6328776232     1.0193730876     -6.8122997783
H       4.6760029049     9.5317737620     1.2053921781
H       6.8634168472     4.2152052896     -0.7653379962
H       6.7842592036     4.6503073734     -5.9385764001
H       4.9828992036     5.4700273734     -7.3305364001
62
# Point 2 Energy = -8620.43874589
C       0.2503471370     2.2917511910     -3.9969535331
C       -0.2108220342     3.4661999026     -3.1453330356
H       -0.2002837268     3.2097777877     -2.0712457877
H       0.4700465541     4.3228638218     -3.2392490749
H       -1.2096496805     3.8245107893     -3.4463948860
H       1.2419368537     1.9464903887     -3.6747094889
H       0.3154114081     2.5794719610     -5.0541497946
H       -0.4348742449     1.4335740481     -3.9257454276
H       -1.4428696793     4.7127185720     -3.7765673602
Al       -1.3780121361     6.1685838665     -1.8854996830
O       -1.9477270507     5.4635522799     -0.4293198405
O       0.2357299844     5.8434132066     -2.3135062923
O       -2.1435710260     5.1541903304     -3.2550211948
O       -1.8826048050     7.7779013881     -2.1841304925
Si       -3.7007467329     4.5290818643     -3.4447007651
Si       -2.9355238479     5.8597204337     0.7853171396
Si       1.8004652294     6.0399835104     -2.0928399809
Si       -1.3329796913     9.2219160911     -1.7195027486
O       -3.4131155441     2.9630456107     -3.7213455547
O       -4.5644767743     4.8087599833     -2.1158438230
O       -4.3210357512     5.2554772383     -4.7477216225
O       -4.3838835192     5.1008205805     0.5731194307
O       -3.2091260145     7.4769255164     0.8302278290
O       2.2815221419     7.5975457763     -2.2501086759
O       2.5518412713     5.1760970637     -3.2506756676
O       -2.0881831912     9.6860016748     -0.3387953122
O       0.2900783489     9.1730166631     -1.4065756025
Si       -3.8032014448     1.3698424059     -3.7699090717
Si       -5.1532995164     4.3286579604     -0.6250643134
Si       -5.2407494953     4.9267221575     -6.0742539819
Si       -2.7410724655     9.0379413548     1.0154311430
Si       1.8824036820     9.1120787616     -1.7706763504
Si       3.8577668433     4.3023554575     -3.5880104365
Si       -1.6637792475     -0.3040930307     -5.2361769563
O       -2.4565611196     0.5070269506     -4.0612019054
O       -2.1838290247     0.1950472248     -6.7057518116
O       -4.5844821698     0.9893170388     -7.6337916120
O       -0.0879842190     0.0297079806     -5.0832610302
O       2.3484949579     0.3335359452     -4.1531793128
O       3.3902795516     2.7476936358     -3.7834529630
O       -4.8913201365     1.1677047176     -4.9769055369
O       -5.0240824134     3.3656252480     -6.5219395214
Si       -5.3657373536     1.7636551582     -6.4342454094
Si       3.7345792010     1.1574051631     -3.8858529408
Si       1.4616654028     -0.4158544629     -5.2903297928
Si       -3.2724856092     0.0517783232     -7.9288647548
O       2.2472417892     5.4870104707     -0.6094447185
O       1.9305057880     0.0344968835     -6.7908952995
O       4.7688419196     0.9117383831     -5.1366857383
O       2.7682262427     9.4785622087     -0.4421043828
O       4.9766154275     4.3842053419     -2.4024942337
O       4.4942795960     4.8819245594     -4.9615292774
Si       3.3463127531     5.6604695084     0.5919810984
O       3.8013576680     7.2280148635     0.6943895602
O       4.6610026097     4.7466975214     0.2706284935
Si       3.4385181402     8.8155524261     0.8981387615
Si       5.4466924198     3.9179465212     -0.8969884167
Si       2.9752168547     -0.1820834513     -8.0421040295
O       4.3665311265     0.6322389551     -7.7783786240
Si       5.2444521192     1.3910439962     -6.6330106932
O       5.0423545353     3.0032454401     -6.8046927567
Si       5.3657218739     4.5267225683     -6.2914684661
H       -2.4349204542     5.3595472026     2.0501264483
H       -1.6093569217     10.1935628552     -2.7594591427
H       -1.7220043436     9.0877248763     2.0703755686
H       -2.6707173951     0.5258318338     -9.1662881032
H       -3.6937573951     -1.3518881662     -8.0337681032
H       -1.9044608862     -1.7382378745     -5.0565130793
H       4.3022477897     0.6676419810     -2.6420471581
H       1.5848946859     -1.8676987891     -5.1215653062
H       -4.3360546619     0.9827169604     -2.4846516486
H       -6.7858975346     1.5156219806     -6.5627185556
H       -6.5545425077     4.7145022048     -0.5108240679
H       -5.0006625077     2.8597822048     -0.5430240679
H       -3.9060843436     9.8485648763     1.3638155686
H       2.2533537482     10.0495358689     -2.8288730309
H       -4.8300985060     5.8332273405     -7.1447992414
H       -6.6342185060     5.1487473405     -5.6875192414
H       2.7798664739     5.1678871286     1.8442195651
H       2.4680029049     8.9328537620     1.9919921781
H       5.1779768472     2.4810052896     -0.7377379962
H       2.3637788020     0.3387628918     -9.2590672452
H       3.2846988020     -1.6116371082     -8.1633472452
H       6.6328776232     1.0193730876     -6.8122997783
H       4.6760029049     9.5317737620     1.2053921781
H       6.8634168472     4.2152052896     -0.7653379962
H       6.7842592036     4.6503073734     -5.9385764001
H       4.9828992036     5.4700273734     -7.3305364001
62
# Point 3 Energy = -8620.53546069
C       0.2527927841     2.8768083737     -4.2966713921
C       -0.2131022776     2.8824784521     -2.8474737196
H       -0.0721759946     1.8927741669     -2.3782701565
H       0.3826404933     3.5736997146     -2.2362625904
H       -1.2632679891     3.2069631487     -2.7550439813
H       1.2968820807     2.5430266975     -4.3656912817
H       0.1859988662     3.8826352930     -4.7308733236
H       -0.3494597258     2.2016854411     -4.9232237724
H       -1.4428696793     4.7127185720     -3.7765673602
Al       -1.3780121361     6.1685838665     -1.8854996830
O       -1.9477270507     5.4635522799     -0.4293198405
O       0.2357299844     5.8434132066     -2.3135062923
O       -2.1435710260     5.1541903304     -3.2550211948
O       -1.8826048050     7.7779013881     -2.1841304925
Si       -3.7007467329     4.5290818643     -3.4447007651
Si       -2.9355238479     5.8597204337     0.7853171396
Si       1.8004652294     6.0399835104     -2.0928399809
Si       -1.3329796913     9.2219160911     -1.7195027486
O       -3.4131155441     2.9630456107     -3.7213455547
O       -4.5644767743     4.8087599833     -2.1158438230
O       -4.3210357512     5.2554772383     -4.7477216225
O       -4.3838835192     5.1008205805     0.5731194307
O       -3.2091260145     7.4769255164     0.8302278290
O       2.2815221419     7.5975457763     -2.2501086759
O       2.5518412713     5.1760970637     -3.2506756676
O       -2.0881831912     9.6860016748     -0.3387953122
O       0.2900783489     9.1730166631     -1.4065756025
Si       -3.8032014448     1.3698424059     -3.7699090717
Si       -5.1532995164     4.3286579604     -0.6250643134
Si       -5.2407494953     4.9267221575     -6.0742539819
Si       -2.7410724655     9.0379413548     1.0154311430
Si       1.8824036820     9.1120787616     -1.7706763504
Si       3.8577668433     4.3023554575     -3.5880104365
Si       -1.6637792475     -0.3040930307     -5.2361769563
O       -2.4565611196     0.5070269506     -4.0612019054
O       -2.1838290247     0.1950472248     -6.7057518116
O       -4.5844821698     0.9893170388     -7.6337916120
O       -0.0879842190     0.0297079806     -5.0832610302
O       2.3484949579     0.3335359452     -4.1531793128
O       3.3902795516     2.7476936358     -3.7834529630
O       -4.8913201365     1.1677047176     -4.9769055369
O       -5.0240824134     3.3656252480     -6.5219395214
Si       -5.3657373536     1.7636551582     -6.4342454094
Si       3.7345792010     1.1574051631     -3.8858529408
Si       1.4616654028     -0.4158544629     -5.2903297928
Si       -3.2724856092     0.0517783232     -7.9288647548
O       2.2472417892     5.4870104707     -0.6094447185
O       1.9305057880     0.0344968835     -6.7908952995
O       4.7688419196     0.9117383831     -5.1366857383
O       2.7682262427     9.4785622087     -0.4421043828
O       4.9766154275     4.3842053419     -2.4024942337
O       4.4942795960     4.8819245594     -4.9615292774
Si       3.3463127531     5.6604695084     0.5919810984
O       3.8013576680     7.2280148635     0.6943895602
O       4.6610026097     4.7466975214     0.2706284935
Si       3.4385181402     8.8155524261     0.8981387615
Si       5.4466924198     3.9179465212     -0.8969884167
Si       2.9752168547     -0.1820834513     -8.0421040295
O       4.3665311265     0.6322389551     -7.7783786240
Si       5.2444521192     1.3910439962     -6.6330106932
O       5.0423545353     3.0032454401     -6.8046927567
Si       5.3657218739     4.5267225683     -6.2914684661
H       -2.4349204542     5.3595472026     2.0501264483
H       -1.6093569217     10.1935628552     -2.7594591427
H       -1.7220043436     9.0877248763     2.0703755686
H       -2.6707173951     0.5258318338     -9.1662881032
H       -3.6937573951     -1.3518881662     -8.0337681032
H       -1.9044608862     -1.7382378745     -5.0565130793
H       4.3022477897     0.6676419810     -2.6420471581
H       1.5848946859     -1.8676987891     -5.1215653062
H       -4.3360546619     0.9827169604     -2.4846516486
H       -6.7858975346     1.5156219806     -6.5627185556
H       -6.5545425077     4.7145022048     -0.5108240679
H       -5.0006625077     2.8597822048     -0.5430240679
H       -3.9060843436     9.8485648763     1.3638155686
H       2.2533537482     10.0495358689     -2.8288730309
H       -4.8300985060     5.8332273405     -7.1447992414
H       -6.6342185060     5.1487473405     -5.6875192414
H       2.7798664739     5.1678871286     1.8442195651
H       2.4680029049     8.9328537620     1.9919921781
H       5.1779768472     2.4810052896     -0.7377379962
H       2.3637788020     0.3387628918     -9.2590672452
H       3.2846988020     -1.6116371082     -8.1633472452
H       6.6328776232     1.0193730876     -6.8122997783
H       4.6760029049     9.5317737620     1.2053921781
H       6.8634168472     4.2152052896     -0.7653379962
H       6.7842592036     4.6503073734     -5.9385764001
H       4.9828992036     5.4700273734     -7.3305364001
62
# Point 4 Energy = -8620.52946786
C       0.1770184775     3.4711082044     -4.0261262961
C       -0.1374623501     2.2904665377     -3.1181332807
H       0.1306841381     1.3333699377     -3.5993716126
H       0.4593047448     2.3217330686     -2.1966308304
H       -1.1956184734     2.2823282438     -2.8068119301
H       1.2322957381     3.4545604097     -4.3301205162
H       -0.0153700478     4.4207160559     -3.5104596210
H       -0.4290783417     3.4608349179     -4.9446076789
H       -1.4428696793     4.7127185720     -3.7765673602
Al       -1.3780121361     6.1685838665     -1.8854996830
O       -1.9477270507     5.4635522799     -0.4293198405
O       0.2357299844     5.8434132066     -2.3135062923
O       -2.1435710260     5.1541903304     -3.2550211948
O       -1.8826048050     7.7779013881     -2.1841304925
Si       -3.7007467329     4.5290818643     -3.4447007651
Si       -2.9355238479     5.8597204337     0.7853171396
Si       1.8004652294     6.0399835104     -2.0928399809
Si       -1.3329796913     9.2219160911     -1.7195027486
O       -3.4131155441     2.9630456107     -3.7213455547
O       -4.5644767743     4.8087599833     -2.1158438230
O       -4.3210357512     5.2554772383     -4.7477216225
O       -4.3838835192     5.1008205805     0.5731194307
O       -3.2091260145     7.4769255164     0.8302278290
O       2.2815221419     7.5975457763     -2.2501086759
O       2.5518412713     5.1760970637     -3.2506756676
O       -2.0881831912     9.6860016748     -0.3387953122
O       0.2900783489     9.1730166631     -1.4065756025
Si       -3.8032014448     1.3698424059     -3.7699090717
Si       -5.1532995164     4.3286579604     -0.6250643134
Si       -5.2407494953     4.9267221575     -6.0742539819
Si       -2.7410724655     9.0379413548     1.0154311430
Si       1.8824036820     9.1120787616     -1.7706763504
Si       3.8577668433     4.3023554575     -3.5880104365
Si       -1.6637792475     -0.3040930307     -5.2361769563
O       -2.4565611196     0.5070269506     -4.0612019054
O       -2.1838290247     0.1950472248     -6.7057518116
O       -4.5844821698     0.9893170388     -7.6337916120
O       -0.0879842190     0.0297079806     -5.0832610302
O       2.3484949579     0.3335359452     -4.1531793128
O       3.3902795516     2.7476936358     -3.7834529630
O       -4.8913201365     1.1677047176     -4.9769055369
O       -5.0240824134     3.3656252480     -6.5219395214
Si       -5.3657373536     1.7636551582     -6.4342454094
Si       3.7345792010     1.1574051631     -3.8858529408
Si       1.4616654028     -0.4158544629     -5.2903297928
Si       -3.2724856092     0.0517783232     -7.9288647548
O       2.2472417892     5.4870104707     -0.6094447185
O       1.9305057880     0.0344968835     -6.7908952995
O       4.7688419196     0.9117383831     -5.1366857383
O       2.7682262427     9.4785622087     -0.4421043828
O       4.9766154275     4.3842053419     -2.4024942337
O       4.4942795960     4.8819245594     -4.9615292774
Si       3.3463127531     5.6604695084     0.5919810984
O       3.8013576680     7.2280148635     0.6943895602
O       4.6610026097     4.7466975214     0.2706284935
Si       3.4385181402     8.8155524261     0.8981387615
Si       5.4466924198     3.9179465212     -0.8969884167
Si       2.9752168547     -0.1820834513     -8.0421040295
O       4.3665311265     0.6322389551     -7.7783786240
Si       5.2444521192     1.3910439962     -6.6330106932
O       5.0423545353     3.0032454401     -6.8046927567
Si       5.3657218739     4.5267225683     -6.2914684661
H       -2.4349204542     5.3595472026     2.0501264483
H       -1.6093569217     10.1935628552     -2.7594591427
H       -1.7220043436     9.0877248763     2.0703755686
H       -2.6707173951     0.5258318338     -9.1662881032
H       -3.6937573951     -1.3518881662     -8.0337681032
H       -1.9044608862     -1.7382378745     -5.0565130793
H       4.3022477897     0.6676419810     -2.6420471581
H       1.5848946859     -1.8676987891     -5.1215653062
H       -4.3360546619     0.9827169604     -2.4846516486
H       -6.7858975346     1.5156219806     -6.5627185556
H       -6.5545425077     4.7145022048     -0.5108240679
H       -5.0006625077     2.8597822048     -0.5430240679
H       -3.9060843436     9.8485648763     1.3638155686
H       2.2533537482     10.0495358689     -2.8288730309
H       -4.8300985060     5.8332273405     -7.1447992414
H       -6.6342185060     5.1487473405     -5.6875192414
H       2.7798664739     5.1678871286     1.8442195651
H       2.4680029049     8.9328537620     1.9919921781
H       5.1779768472     2.4810052896     -0.7377379962
H       2.3637788020     0.3387628918     -9.2590672452
H       3.2846988020     -1.6116371082     -8.1633472452
H       6.6328776232     1.0193730876     -6.8122997783
H       4.6760029049     9.5317737620     1.2053921781
H       6.8634168472     4.2152052896     -0.7653379962
H       6.7842592036     4.6503073734     -5.9385764001
H       4.9828992036     5.4700273734     -7.3305364001
62
# Point 5 Energy = -8620.46552253
C       0.0811362587     3.6188764516     -3.3928018702
C       -0.0419112363     2.1441837661     -3.7497403095
H       0.2527212928     1.9605775606     -4.7980757554
H       0.6412447601     1.5271090939     -3.1507477712
H       -1.0585821948     1.7597174380     -3.5619973967
H       1.0977097105     3.9820275922     -3.5952767531
H       -0.1342635853     3.7810549599     -2.3288556428
H       -0.6126698135     4.2453686864     -3.9734976244
H       -1.4428696793     4.7127185720     -3.7765673602
Al       -1.3780121361     6.1685838665     -1.8854996830
O       -1.9477270507     5.4635522799     -0.4293198405
O       0.2357299844     5.8434132066     -2.3135062923
O       -2.1435710260     5.1541903304     -3.2550211948
O       -1.8826048050     7.7779013881     -2.1841304925
Si       -3.7007467329     4.5290818643     -3.4447007651
Si       -2.9355238479     5.8597204337     0.7853171396
Si       1.8004652294     6.0399835104     -2.0928399809
Si       -1.3329796913     9.2219160911     -1.7195027486
O       -3.4131155441     2.9630456107     -3.7213455547
O       -4.5644767743     4.8087599833     -2.1158438230
O       -4.3210357512     5.2554772383     -4.7477216225
O       -4.3838835192     5.1008205805     0.5731194307
O       -3.2091260145     7.4769255164     0.8302278290
O       2.2815221419     7.5975457763     -2.2501086759
O       2.5518412713     5.1760970637     -3.2506756676
O       -2.0881831912     9.6860016748     -0.3387953122
O       0.2900783489     9.1730166631     -1.4065756025
Si       -3.8032014448     1.3698424059     -3.7699090717
Si       -5.1532995164     4.3286579604     -0.6250643134
Si       -5.2407494953     4.9267221575     -6.0742539819
Si       -2.7410724655     9.0379413548     1.0154311430
Si       1.8824036820     9.1120787616     -1.7706763504
Si       3.8577668433     4.3023554575     -3.5880104365
Si       -1.6637792475     -0.3040930307     -5.2361769563
O       -2.4565611196     0.5070269506     -4.0612019054
O       -2.1838290247     0.1950472248     -6.7057518116
O       -4.5844821698     0.9893170388     -7.6337916120
O       -0.0879842190     0.0297079806     -5.0832610302
O       2.3484949579     0.3335359452     -4.1531793128
O       3.3902795516     2.7476936358     -3.7834529630
O       -4.8913201365     1.1677047176     -4.9769055369
O       -5.0240824134     3.3656252480     -6.5219395214
Si       -5.3657373536     1.7636551582     -6.4342454094
Si       3.7345792010     1.1574051631     -3.8858529408
Si       1.4616654028     -0.4158544629     -5.2903297928
Si       -3.2724856092     0.0517783232     -7.9288647548
O       2.2472417892     5.4870104707     -0.6094447185
O       1.9305057880     0.0344968835     -6.7908952995
O       4.7688419196     0.9117383831     -5.1366857383
O       2.7682262427     9.4785622087     -0.4421043828
O       4.9766154275     4.3842053419     -2.4024942337
O       4.4942795960     4.8819245594     -4.9615292774
Si       3.3463127531     5.6604695084     0.5919810984
O       3.8013576680     7.2280148635     0.6943895602
O       4.6610026097     4.7466975214     0.2706284935
Si       3.4385181402     8.8155524261     0.8981387615
Si       5.4466924198     3.9179465212     -0.8969884167
Si       2.9752168547     -0.1820834513     -8.0421040295
O       4.3665311265     0.6322389551     -7.7783786240
Si       5.2444521192     1.3910439962     -6.6330106932
O       5.0423545353     3.0032454401     -6.8046927567
Si       5.3657218739     4.5267225683     -6.2914684661
H       -2.4349204542     5.3595472026     2.0501264483
H       -1.6093569217     10.1935628552     -2.7594591427
H       -1.7220043436     9.0877248763     2.0703755686
H       -2.6707173951     0.5258318338     -9.1662881032
H       -3.6937573951     -1.3518881662     -8.0337681032
H       -1.9044608862     -1.7382378745     -5.0565130793
H       4.3022477897     0.6676419810     -2.6420471581
H       1.5848946859     -1.8676987891     -5.1215653062
H       -4.3360546619     0.9827169604     -2.4846516486
H       -6.7858975346     1.5156219806     -6.5627185556
H       -6.5545425077     4.7145022048     -0.5108240679
H       -5.0006625077     2.8597822048     -0.5430240679
H       -3.9060843436     9.8485648763     1.3638155686
H       2.2533537482     10.0495358689     -2.8288730309
H       -4.8300985060     5.8332273405     -7.1447992414
H       -6.6342185060     5.1487473405     -5.6875192414
H       2.7798664739     5.1678871286     1.8442195651
H       2.4680029049     8.9328537620     1.9919921781
H       5.1779768472     2.4810052896     -0.7377379962
H       2.3637788020     0.3387628918     -9.2590672452
H       3.2846988020     -1.6116371082     -8.1633472452
H       6.6328776232     1.0193730876     -6.8122997783
H       4.6760029049     9.5317737620     1.2053921781