
Running Job 1 of 1 ETH2-CHA-freq.in
qchem ETH2-CHA-freq.in_59748.0 /scr/lance/134368/qchem59748/ 0
/home/mgcf/software-ws/qchem/qchem_540/exe/qcprog.exe_s ETH2-CHA-freq.in_59748.0 /scr/lance/134368/qchem59748/
                  Welcome to Q-Chem
     A Quantum Leap Into The Future Of Chemistry


 Q-Chem 5.4, Q-Chem, Inc., Pleasanton, CA (2021)

 E. Epifanovsky,  A. T. B. Gilbert,  Xintian Feng,  Joonho Lee,  Yuezhi Mao,  
 N. Mardirossian,  P. Pokhilko,  A. White,  M. Wormit,  M. P. Coons,  
 A. L. Dempwolff,  Zhengting Gan,  D. Hait,  P. R. Horn,  L. D. Jacobson,  
 I. Kaliman,  J. Kussmann,  A. W. Lange,  Ka Un Lao,  D. S. Levine,  Jie Liu,  
 S. C. McKenzie,  A. F. Morrison,  K. Nanda,  F. Plasser,  D. R. Rehn,  
 M. L. Vidal,  Zhi-Qiang You,  Ying Zhu,  B. Alam,  B. Albrecht,  
 A. Aldossary,  E. Alguire,  J. H. Andersen,  D. Barton,  K. Begam,  A. Behn,  
 Y. A. Bernard,  E. J. Berquist,  H. Burton,  A. Carreras,  K. Carter-Fenk,  
 R. Chakraborty,  A. D. Chien,  K. D. Closser,  V. Cofer-Shabica,  
 S. Dasgupta,  Jia Deng,  M. de Wergifosse,  M. Diedenhofen,  Hainam Do,  
 S. Ehlert,  Po-Tung Fang,  S. Fatehi,  Qingguo Feng,  J. Gayvert,  
 Qinghui Ge,  G. Gidofalvi,  M. Goldey,  J. Gomes,  C. Gonzalez-Espinoza,  
 S. Gulania,  A. Gunina,  M. W. D. Hanson-Heine,  P. H. P. Harbach,  
 A. W. Hauser,  M. F. Herbst,  M. Hernandez Vera,  M. Hodecker,  
 Z. C. Holden,  S. Houck,  Xunkun Huang,  Kerwin Hui,  B. C. Huynh,  
 M. Ivanov,  Hyunjun Ji,  Hanjie Jiang,  B. Kaduk,  S. Kaehler,  
 K. Khistyaev,  Jaehoon Kim,  P. Klunzinger,  Z. Koczor-Benda,  
 Joong Hoon Koh,  D. Kosenkov,  L. Koulias,  T. Kowalczyk,  C. M. Krauter,  
 K. Kue,  A. Kunitsa,  T. Kus,  A. Landau,  K. V. Lawler,  D. Lefrancois,  
 S. Lehtola,  Rain Li,  Yi-Pei Li,  Jiashu Liang,  M. Liebenthal,  
 Hung-Hsuan Lin,  You-Sheng Lin,  Fenglai Liu,  Kuan-Yu Liu,  
 M. Loipersberger,  A. Luenser,  A. Manjanath,  P. Manohar,  E. Mansoor,  
 S. F. Manzer,  Shan-Ping Mao,  A. V. Marenich,  T. Markovich,  S. Mason,  
 S. A. Maurer,  P. F. McLaughlin,  M. F. S. J. Menger,  J.-M. Mewes,  
 S. A. Mewes,  P. Morgante,  J. W. Mullinax,  T. S. Nguyen-Beck,  
 K. J. Oosterbaan,  G. Paran,  Alexander C. Paul,  Suranjan K. Paul,  
 F. Pavosevic,  Zheng Pei,  S. Prager,  E. I. Proynov,  E. Ramos,  B. Rana,  
 A. E. Rask,  A. Rettig,  R. M. Richard,  F. Rob,  E. Rossomme,  T. Scheele,  
 M. Scheurer,  M. Schneider,  N. Sergueev,  S. M. Sharada,  W. Skomorowski,  
 D. W. Small,  C. J. Stein,  Yu-Chuan Su,  E. J. Sundstrom,  Zhen Tao,  
 J. Thirman,  T. Tsuchimochi,  N. M. Tubman,  S. P. Veccham,  O. Vydrov,  
 J. Wenzel,  J. Witte,  A. Yamada,  Kun Yao,  S. Yeganeh,  S. R. Yost,  
 A. Zech,  Igor Ying Zhang,  Xing Zhang,  Yu Zhang,  D. Zuev,  
 A. Aspuru-Guzik,  A. T. Bell,  N. A. Besley,  K. B. Bravaya,  B. R. Brooks,  
 D. Casanova,  Jeng-Da Chai,  S. Coriani,  C. J. Cramer,  
 A. E. DePrince, III,  R. A. DiStasio Jr.,  A. Dreuw,  B. D. Dunietz,  
 T. R. Furlani,  W. A. Goddard III,  S. Grimme,  S. Hammes-Schiffer,  
 T. Head-Gordon,  W. J. Hehre,  Chao-Ping Hsu,  T.-C. Jagau,  Yousung Jung,  
 A. Klamt,  Jing Kong,  D. S. Lambrecht,  WanZhen Liang,  N. J. Mayhall,  
 C. W. McCurdy,  J. B. Neaton,  C. Ochsenfeld,  J. A. Parkhill,  R. Peverati,  
 V. A. Rassolov,  Yihan Shao,  L. V. Slipchenko,  T. Stauch,  R. P. Steele,  
 J. E. Subotnik,  A. J. W. Thom,  A. Tkatchenko,  D. G. Truhlar,  
 T. Van Voorhis,  T. A. Wesolowski,  K. B. Whaley,  H. L. Woodcock III,  
 P. M. Zimmerman,  S. Faraji,  P. M. W. Gill,  M. Head-Gordon,  
 J. M. Herbert,  A. I. Krylov

 Contributors to earlier versions of Q-Chem not listed above: 
 R. D. Adamson,  B. Austin,  R. Baer,  J. Baker,  G. J. O. Beran,  
 K. Brandhorst,  S. T. Brown,  E. F. C. Byrd,  A. K. Chakraborty,  
 G. K. L. Chan,  Chun-Min Chang,  Yunqing Chen,  C.-L. Cheng,  
 Siu Hung Chien,  D. M. Chipman,  D. L. Crittenden,  H. Dachsel,  
 R. J. Doerksen,  A. D. Dutoi,  R. G. Edgar,  J. Fosso-Tande,  
 L. Fusti-Molnar,  D. Ghosh,  A. Ghysels,  A. Golubeva-Zadorozhnaya,  
 J. Gonthier,  M. S. Gordon,  S. R. Gwaltney,  G. Hawkins,  J. E. Herr,  
 A. Heyden,  S. Hirata,  E. G. Hohenstein,  G. Kedziora,  F. J. Keil,  
 C. Kelley,  Jihan Kim,  R. A. King,  R. Z. Khaliullin,  P. P. Korambath,  
 W. Kurlancheek,  A. Laurent,  A. M. Lee,  M. S. Lee,  S. V. Levchenko,  
 Ching Yeh Lin,  D. Liotard,  E. Livshits,  R. C. Lochan,  I. Lotan,  
 L. A. Martinez-Martinez,  P. E. Maslen,  N. Nair,  D. P. O'Neill,  
 D. Neuhauser,  E. Neuscamman,  C. M. Oana,  R. Olivares-Amaya,  R. Olson,  
 T. M. Perrine,  B. Peters,  P. A. Pieniazek,  A. Prociuk,  Y. M. Rhee,  
 J. Ritchie,  M. A. Rohrdanz,  E. Rosta,  N. J. Russ,  H. F. Schaefer III,  
 M. W. Schmidt,  N. E. Schultz,  S. Sharma,  N. Shenvi,  C. D. Sherrill,  
 A. C. Simmonett,  A. Sodt,  T. Stein,  D. Stuck,  K. S. Thanthiriwatte,  
 V. Vanovschi,  L. Vogt,  Tao Wang,  A. Warshel,  M. A. Watson,  
 C. F. Williams,  Q. Wu,  X. Xu,  Jun Yang,  W. Zhang,  Yan Zhao

 Please cite Q-Chem as follows:
 Y. Shao et al., Mol. Phys. 113, 184-215 (2015)
 DOI: 10.1080/00268976.2014.952696

 Q-Chem 5.4.0 for Intel X86 EM64T Linux

 Parts of Q-Chem use Armadillo 9.800.1 (Horizon Scraper).
 http://arma.sourceforge.net/

 Q-Chem begins on Wed Jun 23 14:31:08 2021  

 Host: 
0

     Scratch files written to /scr/lance/134368/qchem59748//
 May1621 |scratch|qcdevops|jenkins|workspace|build_RNUM -1
 Processing $rem in /home/mgcf/software-ws/qchem/qchem_540/config/preferences:
 Processing $rem in /home/lance/.qchemrc:
Applying user defined connections for MM calculations

 Checking the input file for inconsistencies... 	...done.

--------------------------------------------------------------
User input:
--------------------------------------------------------------
$rem
jobtype		freq
gui     	2
!vibman_print	4
max_scf_cycles  500
geom_opt_max_cycles 999
exchange 	omegab97x-d
basis def2-svp
!basis		6-311+G(3df,3pd)
scf_algorithm 	rca_diis
QM_MM_INTERFACE Zeolite
force_field   	charmm27
user_connect   	true
symmetry  	 off
sym_ignore   	true
print_input   	true
qmmm_print   	false
qm_mm   	true
model_system_mult 1
qmmm_full_hessian 	false
mem_total   1000000000
mem_static   10000
pop_mulliken 	false
!nbo	true
isotopes true
$end

$qm_atoms
1
2
3
4
5
6
7
8
9
10
11
12
13
14
15
16
17
18
19
20
21
22
23
24
25
26
27
28
29
30
31
32
33
34
35
36
37
38
39
40
41
42
43
44
45
46
47
48
49
50
51
52
53
54
55
56
57
58
59
60
61
62
$end

$isotopes
1 0
26
63 100000000000000000
64 100000000000000000
65 100000000000000000
66 100000000000000000
67 100000000000000000
68 100000000000000000
69 100000000000000000
70 100000000000000000
71 100000000000000000
72 100000000000000000
73 100000000000000000
74 100000000000000000
75 100000000000000000
76 100000000000000000
77 100000000000000000
78 100000000000000000
79 100000000000000000
80 100000000000000000
81 100000000000000000
82 100000000000000000
83 100000000000000000
84 100000000000000000
85 100000000000000000
86 100000000000000000
87 100000000000000000
88 100000000000000000
$end

$comment
Atom   type   and   names
-1   Oxygen   in   SiO4
-2   Silicon   in   SiO4
-3   H for terminal in SiO4
-4   H hydrolysis
-23  Si right out of T5 and has one connectin to QM
-22  Si right out of T5 and has two connectin to QM
$end

$opt
fixed
63	XYZ
64	XYZ
65	XYZ
66	XYZ
67	XYZ
68	XYZ
69	XYZ
70	XYZ
71	XYZ
72	XYZ
73	XYZ
74	XYZ
75	XYZ
76	XYZ
77	XYZ
78	XYZ
79	XYZ
80	XYZ
81	XYZ
82	XYZ
83	XYZ
84	XYZ
85	XYZ
86	XYZ
87	XYZ
88	XYZ
89	XYZ
90	XYZ
91	XYZ
92	XYZ
93	XYZ
94	XYZ
95	XYZ
96	XYZ
97	XYZ
98	XYZ
99	XYZ
100	XYZ
101	XYZ
102	XYZ
103	XYZ
104	XYZ
105	XYZ
106	XYZ
107	XYZ
108	XYZ
109	XYZ
110	XYZ
111	XYZ
112	XYZ
113	XYZ
114	XYZ
115	XYZ
116	XYZ
117	XYZ
118	XYZ
119	XYZ
120	XYZ
121	XYZ
122	XYZ
123	XYZ
124	XYZ
125	XYZ
126	XYZ
127	XYZ
128	XYZ
129	XYZ
130	XYZ
131	XYZ
132	XYZ
133	XYZ
134	XYZ
135	XYZ
136	XYZ
137	XYZ
138	XYZ
139	XYZ
140	XYZ
141	XYZ
142	XYZ
143	XYZ
144	XYZ
145	XYZ
146	XYZ
147	XYZ
148	XYZ
149	XYZ
150	XYZ
151	XYZ
152	XYZ
153	XYZ
154	XYZ
155	XYZ
156	XYZ
157	XYZ
158	XYZ
159	XYZ
160	XYZ
161	XYZ
162	XYZ
163	XYZ
164	XYZ
165	XYZ
166	XYZ
167	XYZ
168	XYZ
169	XYZ
170	XYZ
171	XYZ
172	XYZ
173	XYZ
174	XYZ
175	XYZ
176	XYZ
177	XYZ
178	XYZ
179	XYZ
180	XYZ
181	XYZ
182	XYZ
183	XYZ
184	XYZ
185	XYZ
186	XYZ
187	XYZ
188	XYZ
189	XYZ
190	XYZ
191	XYZ
192	XYZ
193	XYZ
194	XYZ
195	XYZ
196	XYZ
197	XYZ
198	XYZ
199	XYZ
200	XYZ
201	XYZ
202	XYZ
203	XYZ
204	XYZ
205	XYZ
206	XYZ
207	XYZ
208	XYZ
209	XYZ
210	XYZ
211	XYZ
212	XYZ
213	XYZ
214	XYZ
215	XYZ
216	XYZ
217	XYZ
218	XYZ
219	XYZ
220	XYZ
221	XYZ
222	XYZ
223	XYZ
224	XYZ
225	XYZ
226	XYZ
227	XYZ
228	XYZ
229	XYZ
230	XYZ
231	XYZ
232	XYZ
233	XYZ
234	XYZ
235	XYZ
236	XYZ
237	XYZ
238	XYZ
239	XYZ
240	XYZ
241	XYZ
242	XYZ
243	XYZ
244	XYZ
245	XYZ
246	XYZ
247	XYZ
248	XYZ
249	XYZ
250	XYZ
251	XYZ
252	XYZ
253	XYZ
254	XYZ
255	XYZ
256	XYZ
257	XYZ
258	XYZ
259	XYZ
260	XYZ
261	XYZ
262	XYZ
263	XYZ
264	XYZ
265	XYZ
266	XYZ
267	XYZ
268	XYZ
269	XYZ
270	XYZ
271	XYZ
272	XYZ
273	XYZ
274	XYZ
275	XYZ
276	XYZ
277	XYZ
278	XYZ
279	XYZ
280	XYZ
281	XYZ
282	XYZ
283	XYZ
284	XYZ
285	XYZ
286	XYZ
287	XYZ
288	XYZ
289	XYZ
290	XYZ
291	XYZ
292	XYZ
293	XYZ
294	XYZ
295	XYZ
296	XYZ
297	XYZ
298	XYZ
299	XYZ
300	XYZ
301	XYZ
302	XYZ
303	XYZ
304	XYZ
305	XYZ
306	XYZ
307	XYZ
308	XYZ
309	XYZ
310	XYZ
311	XYZ
312	XYZ
313	XYZ
314	XYZ
315	XYZ
316	XYZ
317	XYZ
318	XYZ
319	XYZ
320	XYZ
321	XYZ
322	XYZ
323	XYZ
324	XYZ
325	XYZ
326	XYZ
327	XYZ
328	XYZ
329	XYZ
330	XYZ
331	XYZ
332	XYZ
333	XYZ
334	XYZ
335	XYZ
336	XYZ
337	XYZ
338	XYZ
339	XYZ
340	XYZ
341	XYZ
342	XYZ
343	XYZ
344	XYZ
345	XYZ
346	XYZ
347	XYZ
348	XYZ
349	XYZ
350	XYZ
351	XYZ
352	XYZ
353	XYZ
354	XYZ
355	XYZ
356	XYZ
357	XYZ
358	XYZ
359	XYZ
360	XYZ
361	XYZ
362	XYZ
363	XYZ
364	XYZ
365	XYZ
366	XYZ
367	XYZ
368	XYZ
369	XYZ
370	XYZ
371	XYZ
372	XYZ
373	XYZ
374	XYZ
375	XYZ
376	XYZ
377	XYZ
378	XYZ
379	XYZ
380	XYZ
381	XYZ
382	XYZ
383	XYZ
384	XYZ
385	XYZ
386	XYZ
387	XYZ
388	XYZ
389	XYZ
390	XYZ
391	XYZ
392	XYZ
393	XYZ
394	XYZ
395	XYZ
396	XYZ
397	XYZ
398	XYZ
399	XYZ
400	XYZ
401	XYZ
402	XYZ
403	XYZ
404	XYZ
405	XYZ
406	XYZ
407	XYZ
408	XYZ
409	XYZ
410	XYZ
411	XYZ
412	XYZ
413	XYZ
414	XYZ
415	XYZ
416	XYZ
417	XYZ
418	XYZ
419	XYZ
420	XYZ
421	XYZ
422	XYZ
423	XYZ
424	XYZ
425	XYZ
426	XYZ
427	XYZ
428	XYZ
429	XYZ
430	XYZ
431	XYZ
432	XYZ
433	XYZ
434	XYZ
435	XYZ
436	XYZ
437	XYZ
438	XYZ
439	XYZ
440	XYZ
441	XYZ
442	XYZ
443	XYZ
444	XYZ
445	XYZ
446	XYZ
447	XYZ
448	XYZ
449	XYZ
450	XYZ
451	XYZ
452	XYZ
453	XYZ
454	XYZ
455	XYZ
456	XYZ
457	XYZ
458	XYZ
459	XYZ
460	XYZ
461	XYZ
462	XYZ
463	XYZ
464	XYZ
465	XYZ
466	XYZ
467	XYZ
468	XYZ
469	XYZ
470	XYZ
471	XYZ
472	XYZ
473	XYZ
474	XYZ
475	XYZ
476	XYZ
477	XYZ
478	XYZ
479	XYZ
480	XYZ
481	XYZ
482	XYZ
483	XYZ
484	XYZ
485	XYZ
486	XYZ
487	XYZ
488	XYZ
489	XYZ
490	XYZ
491	XYZ
492	XYZ
493	XYZ
494	XYZ
495	XYZ
496	XYZ
497	XYZ
498	XYZ
499	XYZ
500	XYZ
501	XYZ
502	XYZ
503	XYZ
504	XYZ
505	XYZ
506	XYZ
507	XYZ
508	XYZ
509	XYZ
510	XYZ
511	XYZ
512	XYZ
513	XYZ
514	XYZ
515	XYZ
516	XYZ
517	XYZ
518	XYZ
519	XYZ
520	XYZ
521	XYZ
522	XYZ
523	XYZ
524	XYZ
525	XYZ
526	XYZ
527	XYZ
528	XYZ
529	XYZ
530	XYZ
531	XYZ
532	XYZ
533	XYZ
534	XYZ
535	XYZ
536	XYZ
537	XYZ
538	XYZ
539	XYZ
540	XYZ
541	XYZ
542	XYZ
543	XYZ
544	XYZ
545	XYZ
546	XYZ
547	XYZ
548	XYZ
549	XYZ
550	XYZ
551	XYZ
552	XYZ
553	XYZ
554	XYZ
555	XYZ
556	XYZ
557	XYZ
558	XYZ
559	XYZ
560	XYZ
561	XYZ
562	XYZ
563	XYZ
564	XYZ
565	XYZ
566	XYZ
567	XYZ
568	XYZ
569	XYZ
570	XYZ
571	XYZ
572	XYZ
573	XYZ
574	XYZ
575	XYZ
576	XYZ
577	XYZ
578	XYZ
579	XYZ
580	XYZ
581	XYZ
582	XYZ
583	XYZ
584	XYZ
585	XYZ
586	XYZ
587	XYZ
588	XYZ
589	XYZ
590	XYZ
591	XYZ
592	XYZ
593	XYZ
594	XYZ
595	XYZ
596	XYZ
597	XYZ
598	XYZ
599	XYZ
600	XYZ
601	XYZ
602	XYZ
603	XYZ
604	XYZ
605	XYZ
606	XYZ
607	XYZ
608	XYZ
609	XYZ
610	XYZ
611	XYZ
612	XYZ
613	XYZ
614	XYZ
615	XYZ
616	XYZ
617	XYZ
618	XYZ
619	XYZ
620	XYZ
621	XYZ
622	XYZ
623	XYZ
624	XYZ
625	XYZ
626	XYZ
627	XYZ
628	XYZ
629	XYZ
630	XYZ
631	XYZ
632	XYZ
633	XYZ
634	XYZ
635	XYZ
636	XYZ
637	XYZ
638	XYZ
639	XYZ
640	XYZ
641	XYZ
642	XYZ
643	XYZ
644	XYZ
645	XYZ
646	XYZ
647	XYZ
648	XYZ
649	XYZ
650	XYZ
651	XYZ
652	XYZ
653	XYZ
654	XYZ
655	XYZ
656	XYZ
657	XYZ
658	XYZ
659	XYZ
660	XYZ
661	XYZ
662	XYZ
663	XYZ
664	XYZ
665	XYZ
666	XYZ
667	XYZ
668	XYZ
669	XYZ
670	XYZ
671	XYZ
672	XYZ
673	XYZ
674	XYZ
675	XYZ
676	XYZ
677	XYZ
678	XYZ
679	XYZ
680	XYZ
681	XYZ
682	XYZ
683	XYZ
684	XYZ
685	XYZ
686	XYZ
687	XYZ
688	XYZ
689	XYZ
690	XYZ
691	XYZ
692	XYZ
693	XYZ
694	XYZ
695	XYZ
696	XYZ
697	XYZ
698	XYZ
699	XYZ
700	XYZ
701	XYZ
702	XYZ
703	XYZ
704	XYZ
705	XYZ
706	XYZ
707	XYZ
708	XYZ
709	XYZ
710	XYZ
711	XYZ
712	XYZ
713	XYZ
714	XYZ
715	XYZ
716	XYZ
717	XYZ
718	XYZ
719	XYZ
720	XYZ
721	XYZ
722	XYZ
723	XYZ
724	XYZ
725	XYZ
726	XYZ
727	XYZ
728	XYZ
729	XYZ
730	XYZ
731	XYZ
732	XYZ
733	XYZ
734	XYZ
735	XYZ
736	XYZ
737	XYZ
738	XYZ
739	XYZ
740	XYZ
741	XYZ
742	XYZ
743	XYZ
744	XYZ
745	XYZ
746	XYZ
747	XYZ
748	XYZ
749	XYZ
750	XYZ
751	XYZ
752	XYZ
753	XYZ
754	XYZ
755	XYZ
756	XYZ
757	XYZ
758	XYZ
759	XYZ
760	XYZ
761	XYZ
762	XYZ
763	XYZ
764	XYZ
765	XYZ
766	XYZ
767	XYZ
768	XYZ
769	XYZ
770	XYZ
771	XYZ
772	XYZ
773	XYZ
774	XYZ
775	XYZ
776	XYZ
777	XYZ
778	XYZ
779	XYZ
780	XYZ
781	XYZ
782	XYZ
783	XYZ
784	XYZ
785	XYZ
786	XYZ
787	XYZ
788	XYZ
789	XYZ
790	XYZ
791	XYZ
792	XYZ
793	XYZ
794	XYZ
795	XYZ
796	XYZ
797	XYZ
798	XYZ
799	XYZ
800	XYZ
801	XYZ
802	XYZ
803	XYZ
804	XYZ
805	XYZ
806	XYZ
807	XYZ
808	XYZ
809	XYZ
810	XYZ
811	XYZ
812	XYZ
813	XYZ
814	XYZ
815	XYZ
816	XYZ
817	XYZ
818	XYZ
819	XYZ
820	XYZ
821	XYZ
822	XYZ
823	XYZ
824	XYZ
825	XYZ
826	XYZ
827	XYZ
828	XYZ
829	XYZ
830	XYZ
831	XYZ
832	XYZ
833	XYZ
834	XYZ
835	XYZ
836	XYZ
837	XYZ
838	XYZ
839	XYZ
840	XYZ
841	XYZ
842	XYZ
843	XYZ
844	XYZ
845	XYZ
846	XYZ
847	XYZ
848	XYZ
849	XYZ
850	XYZ
851	XYZ
852	XYZ
853	XYZ
854	XYZ
855	XYZ
856	XYZ
857	XYZ
858	XYZ
859	XYZ
860	XYZ
861	XYZ
862	XYZ
863	XYZ
864	XYZ
865	XYZ
866	XYZ
867	XYZ
868	XYZ
869	XYZ
870	XYZ
871	XYZ
872	XYZ
873	XYZ
874	XYZ
875	XYZ
876	XYZ
877	XYZ
878	XYZ
879	XYZ
880	XYZ
881	XYZ
882	XYZ
883	XYZ
884	XYZ
885	XYZ
886	XYZ
887	XYZ
888	XYZ
889	XYZ
890	XYZ
891	XYZ
892	XYZ
893	XYZ
894	XYZ
895	XYZ
896	XYZ
897	XYZ
898	XYZ
899	XYZ
900	XYZ
901	XYZ
902	XYZ
903	XYZ
904	XYZ
905	XYZ
906	XYZ
907	XYZ
908	XYZ
909	XYZ
910	XYZ
911	XYZ
912	XYZ
913	XYZ
914	XYZ
915	XYZ
916	XYZ
917	XYZ
918	XYZ
919	XYZ
920	XYZ
921	XYZ
922	XYZ
923	XYZ
924	XYZ
925	XYZ
926	XYZ
927	XYZ
928	XYZ
929	XYZ
930	XYZ
931	XYZ
932	XYZ
933	XYZ
934	XYZ
935	XYZ
936	XYZ
937	XYZ
938	XYZ
939	XYZ
940	XYZ
941	XYZ
942	XYZ
943	XYZ
944	XYZ
945	XYZ
946	XYZ
947	XYZ
948	XYZ
949	XYZ
950	XYZ
951	XYZ
952	XYZ
953	XYZ
954	XYZ
955	XYZ
956	XYZ
957	XYZ
958	XYZ
959	XYZ
960	XYZ
961	XYZ
962	XYZ
963	XYZ
964	XYZ
965	XYZ
966	XYZ
967	XYZ
968	XYZ
969	XYZ
970	XYZ
971	XYZ
972	XYZ
973	XYZ
974	XYZ
975	XYZ
976	XYZ
977	XYZ
978	XYZ
979	XYZ
980	XYZ
981	XYZ
982	XYZ
983	XYZ
984	XYZ
985	XYZ
986	XYZ
987	XYZ
988	XYZ
989	XYZ
990	XYZ
991	XYZ
992	XYZ
993	XYZ
994	XYZ
995	XYZ
996	XYZ
997	XYZ
998	XYZ
999	XYZ
1000	XYZ
1001	XYZ
1002	XYZ
1003	XYZ
1004	XYZ
1005	XYZ
1006	XYZ
1007	XYZ
1008	XYZ
1009	XYZ
1010	XYZ
1011	XYZ
1012	XYZ
1013	XYZ
1014	XYZ
1015	XYZ
1016	XYZ
1017	XYZ
1018	XYZ
1019	XYZ
1020	XYZ
1021	XYZ
1022	XYZ
1023	XYZ
1024	XYZ
1025	XYZ
1026	XYZ
1027	XYZ
1028	XYZ
1029	XYZ
1030	XYZ
1031	XYZ
1032	XYZ
1033	XYZ
1034	XYZ
1035	XYZ
1036	XYZ
1037	XYZ
1038	XYZ
1039	XYZ
1040	XYZ
1041	XYZ
1042	XYZ
1043	XYZ
1044	XYZ
1045	XYZ
1046	XYZ
1047	XYZ
1048	XYZ
1049	XYZ
1050	XYZ
1051	XYZ
1052	XYZ
1053	XYZ
1054	XYZ
1055	XYZ
1056	XYZ
1057	XYZ
1058	XYZ
1059	XYZ
1060	XYZ
1061	XYZ
1062	XYZ
1063	XYZ
1064	XYZ
1065	XYZ
1066	XYZ
1067	XYZ
1068	XYZ
1069	XYZ
1070	XYZ
1071	XYZ
1072	XYZ
1073	XYZ
1074	XYZ
1075	XYZ
1076	XYZ
1077	XYZ
1078	XYZ
1079	XYZ
1080	XYZ
1081	XYZ
1082	XYZ
1083	XYZ
1084	XYZ
1085	XYZ
1086	XYZ
1087	XYZ
1088	XYZ
1089	XYZ
1090	XYZ
1091	XYZ
1092	XYZ
1093	XYZ
1094	XYZ
1095	XYZ
1096	XYZ
1097	XYZ
1098	XYZ
1099	XYZ
1100	XYZ
1101	XYZ
1102	XYZ
1103	XYZ
1104	XYZ
1105	XYZ
1106	XYZ
1107	XYZ
1108	XYZ
1109	XYZ
1110	XYZ
1111	XYZ
1112	XYZ
1113	XYZ
1114	XYZ
1115	XYZ
1116	XYZ
1117	XYZ
1118	XYZ
1119	XYZ
1120	XYZ
1121	XYZ
1122	XYZ
1123	XYZ
1124	XYZ
1125	XYZ
1126	XYZ
1127	XYZ
1128	XYZ
1129	XYZ
1130	XYZ
1131	XYZ
1132	XYZ
1133	XYZ
1134	XYZ
1135	XYZ
1136	XYZ
1137	XYZ
1138	XYZ
1139	XYZ
1140	XYZ
1141	XYZ
1142	XYZ
1143	XYZ
1144	XYZ
1145	XYZ
1146	XYZ
1147	XYZ
1148	XYZ
1149	XYZ
1150	XYZ
1151	XYZ
1152	XYZ
1153	XYZ
1154	XYZ
1155	XYZ
1156	XYZ
1157	XYZ
1158	XYZ
1159	XYZ
1160	XYZ
1161	XYZ
1162	XYZ
1163	XYZ
1164	XYZ
1165	XYZ
1166	XYZ
1167	XYZ
1168	XYZ
1169	XYZ
1170	XYZ
1171	XYZ
1172	XYZ
1173	XYZ
1174	XYZ
1175	XYZ
1176	XYZ
1177	XYZ
1178	XYZ
1179	XYZ
1180	XYZ
1181	XYZ
1182	XYZ
1183	XYZ
1184	XYZ
1185	XYZ
1186	XYZ
1187	XYZ
1188	XYZ
1189	XYZ
1190	XYZ
1191	XYZ
1192	XYZ
1193	XYZ
1194	XYZ
1195	XYZ
1196	XYZ
1197	XYZ
1198	XYZ
1199	XYZ
1200	XYZ
1201	XYZ
1202	XYZ
1203	XYZ
1204	XYZ
1205	XYZ
1206	XYZ
1207	XYZ
1208	XYZ
1209	XYZ
1210	XYZ
1211	XYZ
1212	XYZ
1213	XYZ
1214	XYZ
1215	XYZ
1216	XYZ
1217	XYZ
1218	XYZ
1219	XYZ
1220	XYZ
1221	XYZ
1222	XYZ
1223	XYZ
1224	XYZ
1225	XYZ
1226	XYZ
1227	XYZ
1228	XYZ
1229	XYZ
1230	XYZ
1231	XYZ
1232	XYZ
1233	XYZ
1234	XYZ
1235	XYZ
1236	XYZ
1237	XYZ
1238	XYZ
1239	XYZ
1240	XYZ
1241	XYZ
1242	XYZ
1243	XYZ
1244	XYZ
1245	XYZ
1246	XYZ
1247	XYZ
1248	XYZ
1249	XYZ
1250	XYZ
1251	XYZ
1252	XYZ
1253	XYZ
1254	XYZ
1255	XYZ
1256	XYZ
1257	XYZ
1258	XYZ
1259	XYZ
1260	XYZ
1261	XYZ
1262	XYZ
1263	XYZ
1264	XYZ
1265	XYZ
1266	XYZ
1267	XYZ
1268	XYZ
1269	XYZ
1270	XYZ
1271	XYZ
1272	XYZ
1273	XYZ
1274	XYZ
1275	XYZ
1276	XYZ
1277	XYZ
1278	XYZ
1279	XYZ
1280	XYZ
1281	XYZ
1282	XYZ
1283	XYZ
1284	XYZ
1285	XYZ
1286	XYZ
1287	XYZ
1288	XYZ
1289	XYZ
1290	XYZ
1291	XYZ
1292	XYZ
1293	XYZ
1294	XYZ
1295	XYZ
1296	XYZ
1297	XYZ
1298	XYZ
1299	XYZ
1300	XYZ
1301	XYZ
1302	XYZ
1303	XYZ
1304	XYZ
1305	XYZ
1306	XYZ
1307	XYZ
1308	XYZ
1309	XYZ
1310	XYZ
1311	XYZ
1312	XYZ
1313	XYZ
1314	XYZ
1315	XYZ
1316	XYZ
1317	XYZ
1318	XYZ
1319	XYZ
1320	XYZ
1321	XYZ
1322	XYZ
1323	XYZ
1324	XYZ
1325	XYZ
1326	XYZ
1327	XYZ
1328	XYZ
1329	XYZ
1330	XYZ
1331	XYZ
1332	XYZ
1333	XYZ
1334	XYZ
1335	XYZ
1336	XYZ
1337	XYZ
1338	XYZ
1339	XYZ
1340	XYZ
1341	XYZ
1342	XYZ
1343	XYZ
1344	XYZ
1345	XYZ
1346	XYZ
1347	XYZ
1348	XYZ
1349	XYZ
1350	XYZ
1351	XYZ
1352	XYZ
1353	XYZ
1354	XYZ
1355	XYZ
1356	XYZ
1357	XYZ
1358	XYZ
1359	XYZ
1360	XYZ
1361	XYZ
1362	XYZ
1363	XYZ
1364	XYZ
1365	XYZ
1366	XYZ
1367	XYZ
1368	XYZ
1369	XYZ
1370	XYZ
1371	XYZ
1372	XYZ
1373	XYZ
1374	XYZ
1375	XYZ
1376	XYZ
1377	XYZ
1378	XYZ
1379	XYZ
1380	XYZ
1381	XYZ
1382	XYZ
1383	XYZ
1384	XYZ
1385	XYZ
1386	XYZ
1387	XYZ
1388	XYZ
1389	XYZ
1390	XYZ
1391	XYZ
1392	XYZ
1393	XYZ
1394	XYZ
1395	XYZ
1396	XYZ
1397	XYZ
1398	XYZ
1399	XYZ
1400	XYZ
1401	XYZ
1402	XYZ
1403	XYZ
1404	XYZ
1405	XYZ
1406	XYZ
1407	XYZ
1408	XYZ
1409	XYZ
1410	XYZ
1411	XYZ
1412	XYZ
1413	XYZ
1414	XYZ
1415	XYZ
1416	XYZ
1417	XYZ
1418	XYZ
1419	XYZ
1420	XYZ
1421	XYZ
1422	XYZ
1423	XYZ
1424	XYZ
1425	XYZ
1426	XYZ
1427	XYZ
1428	XYZ
1429	XYZ
1430	XYZ
1431	XYZ
1432	XYZ
1433	XYZ
1434	XYZ
1435	XYZ
1436	XYZ
1437	XYZ
1438	XYZ
1439	XYZ
1440	XYZ
1441	XYZ
1442	XYZ
1443	XYZ
1444	XYZ
1445	XYZ
1446	XYZ
1447	XYZ
1448	XYZ
1449	XYZ
1450	XYZ
1451	XYZ
1452	XYZ
1453	XYZ
1454	XYZ
1455	XYZ
1456	XYZ
1457	XYZ
1458	XYZ
1459	XYZ
1460	XYZ
1461	XYZ
1462	XYZ
1463	XYZ
1464	XYZ
1465	XYZ
1466	XYZ
1467	XYZ
1468	XYZ
1469	XYZ
1470	XYZ
1471	XYZ
1472	XYZ
1473	XYZ
1474	XYZ
1475	XYZ
1476	XYZ
1477	XYZ
1478	XYZ
1479	XYZ
1480	XYZ
1481	XYZ
1482	XYZ
1483	XYZ
1484	XYZ
1485	XYZ
1486	XYZ
1487	XYZ
1488	XYZ
1489	XYZ
1490	XYZ
1491	XYZ
1492	XYZ
1493	XYZ
1494	XYZ
1495	XYZ
1496	XYZ
1497	XYZ
1498	XYZ
1499	XYZ
1500	XYZ
1501	XYZ
1502	XYZ
1503	XYZ
1504	XYZ
1505	XYZ
1506	XYZ
1507	XYZ
1508	XYZ
1509	XYZ
1510	XYZ
1511	XYZ
1512	XYZ
1513	XYZ
1514	XYZ
1515	XYZ
1516	XYZ
1517	XYZ
1518	XYZ
1519	XYZ
1520	XYZ
1521	XYZ
1522	XYZ
1523	XYZ
1524	XYZ
1525	XYZ
1526	XYZ
1527	XYZ
1528	XYZ
1529	XYZ
1530	XYZ
1531	XYZ
1532	XYZ
1533	XYZ
1534	XYZ
1535	XYZ
1536	XYZ
1537	XYZ
1538	XYZ
1539	XYZ
1540	XYZ
1541	XYZ
1542	XYZ
1543	XYZ
1544	XYZ
1545	XYZ
1546	XYZ
1547	XYZ
1548	XYZ
1549	XYZ
1550	XYZ
1551	XYZ
1552	XYZ
1553	XYZ
1554	XYZ
1555	XYZ
1556	XYZ
1557	XYZ
1558	XYZ
1559	XYZ
1560	XYZ
1561	XYZ
1562	XYZ
1563	XYZ
1564	XYZ
1565	XYZ
1566	XYZ
1567	XYZ
1568	XYZ
1569	XYZ
1570	XYZ
1571	XYZ
1572	XYZ
1573	XYZ
1574	XYZ
1575	XYZ
1576	XYZ
1577	XYZ
1578	XYZ
1579	XYZ
1580	XYZ
1581	XYZ
1582	XYZ
1583	XYZ
1584	XYZ
1585	XYZ
1586	XYZ
1587	XYZ
1588	XYZ
1589	XYZ
1590	XYZ
1591	XYZ
1592	XYZ
1593	XYZ
1594	XYZ
1595	XYZ
1596	XYZ
1597	XYZ
1598	XYZ
1599	XYZ
1600	XYZ
1601	XYZ
1602	XYZ
1603	XYZ
1604	XYZ
1605	XYZ
1606	XYZ
1607	XYZ
1608	XYZ
1609	XYZ
1610	XYZ
1611	XYZ
1612	XYZ
1613	XYZ
1614	XYZ
1615	XYZ
1616	XYZ
1617	XYZ
1618	XYZ
1619	XYZ
1620	XYZ
1621	XYZ
1622	XYZ
1623	XYZ
1624	XYZ
1625	XYZ
1626	XYZ
1627	XYZ
1628	XYZ
1629	XYZ
1630	XYZ
1631	XYZ
1632	XYZ
1633	XYZ
1634	XYZ
1635	XYZ
1636	XYZ
1637	XYZ
1638	XYZ
1639	XYZ
1640	XYZ
1641	XYZ
1642	XYZ
1643	XYZ
1644	XYZ
1645	XYZ
1646	XYZ
1647	XYZ
1648	XYZ
1649	XYZ
1650	XYZ
1651	XYZ
1652	XYZ
1653	XYZ
1654	XYZ
1655	XYZ
1656	XYZ
1657	XYZ
1658	XYZ
1659	XYZ
1660	XYZ
1661	XYZ
1662	XYZ
1663	XYZ
1664	XYZ
1665	XYZ
1666	XYZ
1667	XYZ
1668	XYZ
1669	XYZ
1670	XYZ
1671	XYZ
1672	XYZ
1673	XYZ
1674	XYZ
1675	XYZ
1676	XYZ
1677	XYZ
1678	XYZ
1679	XYZ
1680	XYZ
1681	XYZ
1682	XYZ
1683	XYZ
1684	XYZ
1685	XYZ
1686	XYZ
1687	XYZ
1688	XYZ
1689	XYZ
1690	XYZ
1691	XYZ
1692	XYZ
1693	XYZ
1694	XYZ
1695	XYZ
1696	XYZ
1697	XYZ
1698	XYZ
1699	XYZ
1700	XYZ
1701	XYZ
1702	XYZ
1703	XYZ
1704	XYZ
1705	XYZ
1706	XYZ
1707	XYZ
1708	XYZ
1709	XYZ
1710	XYZ
1711	XYZ
1712	XYZ
1713	XYZ
1714	XYZ
1715	XYZ
1716	XYZ
1717	XYZ
1718	XYZ
1719	XYZ
1720	XYZ
1721	XYZ
1722	XYZ
1723	XYZ
1724	XYZ
1725	XYZ
1726	XYZ
1727	XYZ
1728	XYZ
1729	XYZ
1730	XYZ
1731	XYZ
1732	XYZ
1733	XYZ
1734	XYZ
1735	XYZ
1736	XYZ
1737	XYZ
1738	XYZ
1739	XYZ
1740	XYZ
1741	XYZ
1742	XYZ
1743	XYZ
1744	XYZ
1745	XYZ
1746	XYZ
1747	XYZ
1748	XYZ
1749	XYZ
1750	XYZ
1751	XYZ
1752	XYZ
1753	XYZ
1754	XYZ
1755	XYZ
1756	XYZ
1757	XYZ
1758	XYZ
1759	XYZ
1760	XYZ
1761	XYZ
1762	XYZ
1763	XYZ
1764	XYZ
1765	XYZ
1766	XYZ
1767	XYZ
1768	XYZ
1769	XYZ
1770	XYZ
1771	XYZ
1772	XYZ
1773	XYZ
1774	XYZ
1775	XYZ
1776	XYZ
1777	XYZ
1778	XYZ
1779	XYZ
1780	XYZ
1781	XYZ
1782	XYZ
1783	XYZ
1784	XYZ
1785	XYZ
1786	XYZ
1787	XYZ
1788	XYZ
1789	XYZ
1790	XYZ
1791	XYZ
1792	XYZ
1793	XYZ
1794	XYZ
1795	XYZ
1796	XYZ
1797	XYZ
1798	XYZ
1799	XYZ
1800	XYZ
1801	XYZ
1802	XYZ
1803	XYZ
1804	XYZ
1805	XYZ
1806	XYZ
1807	XYZ
1808	XYZ
1809	XYZ
1810	XYZ
1811	XYZ
1812	XYZ
1813	XYZ
1814	XYZ
1815	XYZ
1816	XYZ
1817	XYZ
1818	XYZ
1819	XYZ
1820	XYZ
1821	XYZ
1822	XYZ
1823	XYZ
1824	XYZ
1825	XYZ
1826	XYZ
1827	XYZ
1828	XYZ
1829	XYZ
1830	XYZ
1831	XYZ
1832	XYZ
1833	XYZ
1834	XYZ
1835	XYZ
1836	XYZ
1837	XYZ
1838	XYZ
1839	XYZ
1840	XYZ
1841	XYZ
1842	XYZ
1843	XYZ
1844	XYZ
1845	XYZ
1846	XYZ
1847	XYZ
1848	XYZ
1849	XYZ
1850	XYZ
1851	XYZ
1852	XYZ
1853	XYZ
1854	XYZ
1855	XYZ
1856	XYZ
1857	XYZ
1858	XYZ
1859	XYZ
1860	XYZ
1861	XYZ
1862	XYZ
1863	XYZ
1864	XYZ
1865	XYZ
1866	XYZ
1867	XYZ
1868	XYZ
1869	XYZ
1870	XYZ
1871	XYZ
1872	XYZ
1873	XYZ
1874	XYZ
1875	XYZ
1876	XYZ
1877	XYZ
1878	XYZ
1879	XYZ
1880	XYZ
1881	XYZ
1882	XYZ
1883	XYZ
1884	XYZ
1885	XYZ
1886	XYZ
1887	XYZ
1888	XYZ
1889	XYZ
1890	XYZ
1891	XYZ
1892	XYZ
1893	XYZ
1894	XYZ
1895	XYZ
1896	XYZ
1897	XYZ
1898	XYZ
1899	XYZ
1900	XYZ
1901	XYZ
1902	XYZ
1903	XYZ
1904	XYZ
1905	XYZ
1906	XYZ
1907	XYZ
1908	XYZ
1909	XYZ
1910	XYZ
1911	XYZ
1912	XYZ
1913	XYZ
1914	XYZ
1915	XYZ
1916	XYZ
1917	XYZ
1918	XYZ
1919	XYZ
1920	XYZ
1921	XYZ
1922	XYZ
1923	XYZ
1924	XYZ
1925	XYZ
1926	XYZ
1927	XYZ
1928	XYZ
1929	XYZ
1930	XYZ
1931	XYZ
1932	XYZ
1933	XYZ
1934	XYZ
1935	XYZ
1936	XYZ
1937	XYZ
1938	XYZ
1939	XYZ
1940	XYZ
1941	XYZ
1942	XYZ
1943	XYZ
1944	XYZ
1945	XYZ
1946	XYZ
1947	XYZ
1948	XYZ
1949	XYZ
1950	XYZ
1951	XYZ
1952	XYZ
1953	XYZ
1954	XYZ
1955	XYZ
1956	XYZ
1957	XYZ
1958	XYZ
1959	XYZ
1960	XYZ
1961	XYZ
1962	XYZ
1963	XYZ
1964	XYZ
1965	XYZ
1966	XYZ
1967	XYZ
1968	XYZ
1969	XYZ
1970	XYZ
1971	XYZ
1972	XYZ
1973	XYZ
1974	XYZ
1975	XYZ
1976	XYZ
1977	XYZ
1978	XYZ
1979	XYZ
1980	XYZ
1981	XYZ
1982	XYZ
1983	XYZ
1984	XYZ
1985	XYZ
1986	XYZ
1987	XYZ
1988	XYZ
1989	XYZ
1990	XYZ
1991	XYZ
1992	XYZ
1993	XYZ
1994	XYZ
1995	XYZ
1996	XYZ
1997	XYZ
1998	XYZ
1999	XYZ
2000	XYZ
2001	XYZ
2002	XYZ
2003	XYZ
2004	XYZ
2005	XYZ
2006	XYZ
2007	XYZ
2008	XYZ
2009	XYZ
2010	XYZ
2011	XYZ
2012	XYZ
2013	XYZ
2014	XYZ
2015	XYZ
2016	XYZ
2017	XYZ
2018	XYZ
2019	XYZ
2020	XYZ
2021	XYZ
2022	XYZ
2023	XYZ
2024	XYZ
2025	XYZ
2026	XYZ
2027	XYZ
2028	XYZ
2029	XYZ
2030	XYZ
2031	XYZ
2032	XYZ
2033	XYZ
2034	XYZ
2035	XYZ
2036	XYZ
2037	XYZ
2038	XYZ
2039	XYZ
2040	XYZ
2041	XYZ
2042	XYZ
2043	XYZ
2044	XYZ
2045	XYZ
2046	XYZ
2047	XYZ
2048	XYZ
2049	XYZ
2050	XYZ
2051	XYZ
2052	XYZ
2053	XYZ
2054	XYZ
2055	XYZ
2056	XYZ
2057	XYZ
2058	XYZ
2059	XYZ
2060	XYZ
2061	XYZ
2062	XYZ
2063	XYZ
2064	XYZ
2065	XYZ
2066	XYZ
2067	XYZ
2068	XYZ
2069	XYZ
2070	XYZ
2071	XYZ
2072	XYZ
2073	XYZ
2074	XYZ
2075	XYZ
2076	XYZ
2077	XYZ
2078	XYZ
2079	XYZ
2080	XYZ
2081	XYZ
2082	XYZ
2083	XYZ
2084	XYZ
2085	XYZ
2086	XYZ
2087	XYZ
2088	XYZ
2089	XYZ
2090	XYZ
2091	XYZ
2092	XYZ
2093	XYZ
2094	XYZ
2095	XYZ
2096	XYZ
2097	XYZ
2098	XYZ
2099	XYZ
2100	XYZ
2101	XYZ
2102	XYZ
2103	XYZ
2104	XYZ
2105	XYZ
2106	XYZ
2107	XYZ
2108	XYZ
2109	XYZ
2110	XYZ
2111	XYZ
2112	XYZ
2113	XYZ
2114	XYZ
2115	XYZ
2116	XYZ
2117	XYZ
2118	XYZ
2119	XYZ
2120	XYZ
2121	XYZ
2122	XYZ
2123	XYZ
2124	XYZ
2125	XYZ
2126	XYZ
2127	XYZ
2128	XYZ
2129	XYZ
2130	XYZ
2131	XYZ
2132	XYZ
2133	XYZ
2134	XYZ
2135	XYZ
2136	XYZ
2137	XYZ
2138	XYZ
2139	XYZ
2140	XYZ
2141	XYZ
2142	XYZ
2143	XYZ
2144	XYZ
2145	XYZ
2146	XYZ
2147	XYZ
2148	XYZ
2149	XYZ
2150	XYZ
2151	XYZ
2152	XYZ
2153	XYZ
2154	XYZ
2155	XYZ
2156	XYZ
2157	XYZ
2158	XYZ
2159	XYZ
2160	XYZ
2161	XYZ
2162	XYZ
2163	XYZ
2164	XYZ
2165	XYZ
2166	XYZ
2167	XYZ
2168	XYZ
2169	XYZ
2170	XYZ
2171	XYZ
2172	XYZ
2173	XYZ
2174	XYZ
2175	XYZ
2176	XYZ
2177	XYZ
2178	XYZ
2179	XYZ
2180	XYZ
2181	XYZ
2182	XYZ
2183	XYZ
2184	XYZ
2185	XYZ
2186    XYZ
2187    XYZ
2188    XYZ
2189    XYZ
2190    XYZ
2191    XYZ
2192    XYZ
2193    XYZ
endfixed
$end


$force_field_params
NumAtomTypes   3000
AtomType   -1   -0.35   1.77   -0.018
AtomType   -13   -0.35   1.77   -0.018
AtomType   -2   0.7   2.2   -0.047
AtomType   -3   -0.175   0.01   0
AtomType   -4    0.175   0.01   0
AtomType   -23   0.525   2.2   -0.047
AtomType   -22   0.35   2.2   -0.047
AtomType   -21   0.175   2.2   -0.047
AtomType   -111   0   1.34   -0.024
AtomType   -112   0   1.34   -0.035
AtomType   -121   0   2.05   -0.078
AtomType   -122   0   2.01   -0.056
AtomType   -912   0   2.175   -0.055
AtomType   -916   0   1.77   -0.1521
AtomType   -901   0   1.32   -0.022
AtomType   -801   0   0.2245   -0.046
AtomType    -31 0   1.9924  -0.07
AtomType    -32 0   2.09    -0.068
AtomType    -33 0   2.08    -0.064
AtomType    -34 0   1.87    -0.18
AtomType    -35 0   2.00    -0.032
AtomType    -41 0   0.2245  -0.046
AtomType    -42 0   0.87    -0.012
AtomType    -43 0   1.1 -0.046
AtomType    -44 0   1.3582  -0.03
AtomType    -45 0   1.26    -0.026
AtomType    -46 0   1.25    -0.031
AtomType    -47 0   1.34    -0.045
AtomType    -51 0   1.765   -0.1921
AtomType    -61 0   1.98    -0.07
AtomType    -62 0   1.89    -0.06
AtomType    -63 0   1.79    -0.18
Bond   -1   -2   304   1.682
Bond   -1   -3   204   1.489
Bond   -2   -3   100   1.45
Angle   -1   -2   -1   34   150
Angle   -2   -1   -2   30   121.5
Angle   -3   -1   -2   44   118
Angle   -1   -2   -3   30   109.5
Torsion   -2   -1   -2   -1   0.1   120   3
Torsion   -2   -1   -2   -3   0.3   120   3
Bond   -121   -122   222.5   1.528
Bond   -121   -121   222.5   1.528
Bond   -122   -122   222.5   1.528
Bond   -111   -121   309   1.089
Bond   -112   -122   309   1.089
Angle   -121   -122   -122   58   115
Angle   -121   -121   -122   58   115
Angle   -121   -121   -121   58   115
Angle   -122   -122   -122   58   115
Angle   -111   -121   -111   35.5   108.4
Angle   -111   -121   -121   35.5   108.4
Angle   -111   -121   -122   35.5   108.4
Angle   -112   -122   -112   35.5   108.4
Angle   -112   -122   -121   35.5   108.4
Angle   -112   -122   -122   35.5   108.4
Torsion   -111   -121   -122   -122   0.16   120   3
Torsion   -111   -121   -121   -121   0.16   120   3
Torsion   -111   -121   -121   -111   0.16   120   3
Torsion   -111   -121   -122   -112   0.16   120   3
Torsion   -112   -122   -122   -122   95.16   180   2
Torsion   -112   -122   -122   -112   95.16   180   2
Torsion   -121   -122   -122   -122   95.16   180   2
Torsion   -121   -122   -122   -112   95.16   180   2
Torsion   -122   -122   -122   -112   95.16   180   2
Torsion   -112   -122   -122   -121   95.16   180   2
Bond   -13   -1   304   1.682
Bond   -13   -121   222.5   1.55
Angle   -13   -121   -121   40   111
Angle   -13   -121   -1   34   150
Angle   -13   -121   -111   35.5   115
Torsion   -1   -13   -121   -121   0.2   120   3
Torsion   -1   -13   -121   -111   0.2   120   3
Bond   -901   -912   342.991   1.093
Bond   -801   -916   560.905   0.972
Bond   -916   -912   363.214   1.418
Bond   -912   -912   306.432   1.508
Angle   -916   -912   -912   71.39   108.133
Angle   -916   -912   -916   83.192   111.368
Angle   -916   -912   -901   56.205   108.577
Angle   -912   -912   -901   45.77   110.549
Angle   -912   -916   -912   86.143   106.926
Angle   -912   -912   -912   61.243   109.608
Angle   -912   -916   -801   57.069   106.503
Angle   -901   -912   -901   37.134   108.836
Torsion   -912   -916   -912   -912   -0.341   0   1
Torsion   -912   -916   -912   -912   0.378   180   2
Torsion   -912   -916   -912   -912   0.378   0   3
Torsion   -912   -916   -912   -901   0.285   0   1
Torsion   -912   -916   -912   -901   0.16   180   2
Torsion   -912   -916   -912   -901   0.285   0   3
Torsion   -912   -912   -912   -912   0.051   0   1
Torsion   -912   -912   -912   -912   0.341   180   2
Torsion   -912   -912   -912   -912   0.166   0   3
Torsion   -912   -912   -912   -916   -0.344   0   1
Torsion   -912   -912   -912   -916   0.878   180   2
Torsion   -912   -912   -912   -916   0.238   0   3
Torsion   -912   -912   -912   -901   0.32   0   1
Torsion   -912   -912   -912   -901   -0.315   180   2
Torsion   -912   -912   -912   -901   0.132   0   3
Torsion   -912   -912   -916   -801   0.135   180   2
Torsion   -912   -912   -916   -801   0.118   0   3
Torsion   -916   -912   -912   -916   0.204   0   1
Torsion   -916   -912   -912   -916   0.699   180   2
Torsion   -916   -912   -912   -916   0.48   0   3
Torsion   -916   -912   -912   -901   -0.327   0   1
Torsion   -916   -912   -912   -901   0.536   180   2
Torsion   -916   -912   -912   -901   0.14   0   3
Torsion   -916   -912   -916   -801   0.744   0   1
Torsion   -916   -912   -916   -801   -1.7   180   2
Torsion   -916   -912   -916   -801   -0.16   0   3
Torsion   -912   -916   -912   -916   0.115   0   1
Torsion   -912   -916   -912   -916   -0.355   180   2
Torsion   -912   -916   -912   -916   0.361   0   3
Torsion   -901   -912   -912   -901   0.142   0   1
Torsion   -901   -912   -912   -901   -0.693   180   2
Torsion   -901   -912   -912   -901   0.157   0   3
Torsion   -901   -912   -916   -801   0.298   0   1
Torsion   -901   -912   -916   -801   -0.138   180   2
Torsion   -901   -912   -916   -801   0.173   0   3
Imptor	-912   -912   -916   -916       0.000  0     0.00
Imptor	-912   -916   -916   -901     0.000  0     0.00
Imptor	-912   -912   -916   -912       0.000  0     0.00
Imptor	-912   -912   -916   -901     0.000  0     0.00
Imptor	-912   -912   -912   -916       0.000  0     0.00
Imptor	-912   -912   -912   -901     0.000  0     0.00
Imptor	-912   -916   -912   -901     0.000  0     0.00
$end

$molecule
0 1
C         0.0388521247    2.5882074685   -2.8672159086      0	 2	 6	 7	 8
C         0.0001106948    3.1731488435   -4.2720671255      0	 1	 3	 4	 5
H         0.2094063579    4.2573852500   -4.2596770806      0	 2	 0	 0	 0
H         0.7827458874    2.7403376624   -4.9095872932      0	 2	 0	 0	 0
H        -0.9610465511    2.9717332614   -4.7743520132      0	 2	 0	 0	 0
H         1.0002261410    2.8076214131   -2.3835694120      0	 1	 0	 0	 0
H        -0.0886558071    1.4984332541   -2.8957540433      0	 1	 0	 0	 0
H        -0.7533938536    3.0006326031   -2.2243171893      0	 1	 0	 0	 0
H        -1.4428696793    4.7127185720   -3.7765673602      0	 13	 0	 0	 0
Al       -1.3780121361    6.1685838665   -1.8854996830      0	 11	 12	 13	 14
O        -1.9477270507    5.4635522799   -0.4293198405      0	 10	 16	 0	 0
O         0.2357299844    5.8434132066   -2.3135062923      0	 17	 10	 0	 0
O        -2.1435710260    5.1541903304   -3.2550211948      0	 9	 10	 15	 0
O        -1.8826048050    7.7779013881   -2.1841304925      0	 10	 18	 0	 0
Si       -3.7007467329    4.5290818643   -3.4447007651      0	 19	 20	 13	 21
Si       -2.9355238479    5.8597204337    0.7853171396      0	 63	 11	 22	 23
Si        1.8004652294    6.0399835104   -2.0928399809      0	 25	 12	 47	 24
Si       -1.3329796913    9.2219160911   -1.7195027486      0	 26	 27	 14	 64
O        -3.4131155441    2.9630456107   -3.7213455547      0	 28	 15	 0	 0
O        -4.5644767743    4.8087599833   -2.1158438230      0	 29	 15	 0	 0
O        -4.3210357512    5.2554772383   -4.7477216225      0	 30	 15	 0	 0
O        -4.3838835192    5.1008205805    0.5731194307      0	 29	 16	 0	 0
O        -3.2091260145    7.4769255164    0.8302278290      0	 31	 16	 0	 0
O         2.2815221419    7.5975457763   -2.2501086759      0	 17	 32	 0	 0
O         2.5518412713    5.1760970637   -3.2506756676      0	 17	 33	 0	 0
O        -2.0881831912    9.6860016748   -0.3387953122      0	 18	 31	 0	 0
O         0.2900783489    9.1730166631   -1.4065756025      0	 18	 32	 0	 0
Si       -3.8032014448    1.3698424059   -3.7699090717      0	 41	 35	 19	 71
Si       -5.1532995164    4.3286579604   -0.6250643134      0	 73	 74	 20	 22
Si       -5.2407494953    4.9267221575   -6.0742539819      0	 42	 21	 78	 77
Si       -2.7410724655    9.0379413548    1.0154311430      0	 65	 26	 75	 23
Si        1.8824036820    9.1120787616   -1.7706763504      0	 50	 27	 76	 24
Si        3.8577668433    4.3023554575   -3.5880104365      0	 25	 51	 52	 40
Si       -1.6637792475   -0.3040930307   -5.2361769563      0	 36	 35	 68	 38
O        -2.4565611196    0.5070269506   -4.0612019054      0	 34	 28	 0	 0
O        -2.1838290247    0.1950472248   -6.7057518116      0	 34	 46	 0	 0
O        -4.5844821698    0.9893170388   -7.6337916120      0	 43	 46	 0	 0
O        -0.0879842190    0.0297079806   -5.0832610302      0	 34	 45	 0	 0
O         2.3484949579    0.3335359452   -4.1531793128      0	 44	 45	 0	 0
O         3.3902795516    2.7476936358   -3.7834529630      0	 33	 44	 0	 0
O        -4.8913201365    1.1677047176   -4.9769055369      0	 43	 28	 0	 0
O        -5.0240824134    3.3656252480   -6.5219395214      0	 43	 30	 0	 0
Si       -5.3657373536    1.7636551582   -6.4342454094      0	 41	 42	 37	 72
Si        3.7345792010    1.1574051631   -3.8858529408      0	 49	 69	 39	 40
Si        1.4616654028   -0.4158544629   -5.2903297928      0	 70	 38	 39	 48
Si       -3.2724856092    0.0517783232   -7.9288647548      0	 66	 67	 36	 37
O         2.2472417892    5.4870104707   -0.6094447185      0	 17	 53	 0	 0
O         1.9305057880    0.0344968835   -6.7908952995      0	 58	 45	 0	 0
O         4.7688419196    0.9117383831   -5.1366857383      0	 60	 44	 0	 0
O         2.7682262427    9.4785622087   -0.4421043828      0	 56	 32	 0	 0
O         4.9766154275    4.3842053419   -2.4024942337      0	 33	 57	 0	 0
O         4.4942795960    4.8819245594   -4.9615292774      0	 33	 62	 0	 0
Si        3.3463127531    5.6604695084    0.5919810984      0	 55	 79	 54	 47
O         3.8013576680    7.2280148635    0.6943895602      0	 53	 56	 0	 0
O         4.6610026097    4.7466975214    0.2706284935      0	 57	 53	 0	 0
Si        3.4385181402    8.8155524261    0.8981387615      0	 50	 85	 54	 80
Si        5.4466924198    3.9179465212   -0.8969884167      0	 81	 51	 86	 55
Si        2.9752168547   -0.1820834513   -8.0421040295      0	 82	 59	 83	 48
O         4.3665311265    0.6322389551   -7.7783786240      0	 58	 60	 0	 0
Si        5.2444521192    1.3910439962   -6.6330106932      0	 49	 59	 84	 61
O         5.0423545353    3.0032454401   -6.8046927567      0	 60	 62	 0	 0
Si        5.3657218739    4.5267225683   -6.2914684661      0	 52	 61	 87	 88
O        -2.3913897243    5.3160538782    2.1601098665     -1	 89	 16	 0	 0
O        -1.6333897243   10.2780538782   -2.8498901335     -1	 105	 18	 0	 0
O        -1.6333897243    9.0920538782    2.1621098665     -1	 31	 104	 0	 0
O        -2.6183897243    0.5670538782   -9.2738901335     -1	 154	 46	 0	 0
O        -3.7303897243   -1.4739461218   -8.0428901335     -1	 298	 46	 0	 0
O        -1.9253897243   -1.8629461218   -5.0408901335     -1	 34	 295	 0	 0
O         4.3516102757    0.6250538782   -2.5338901335     -1	 44	 199	 0	 0
O         1.5956102757   -1.9939461218   -5.1068901335     -1	 45	 272	 0	 0
O        -4.3823897243    0.9490538782   -2.3728901335     -1	 378	 28	 0	 0
O        -6.9093897243    1.4940538782   -6.5738901335     -1	 43	 243	 0	 0
O        -6.6763897243    4.7480538782   -0.5008901335     -1	 29	 247	 0	 0
O        -4.9873897243    2.7320538782   -0.5358901335     -1	 378	 29	 0	 0
O        -4.0073897243    9.9190538782    1.3941098665     -1	 285	 31	 0	 0
O         2.2856102757   10.1310538782   -2.9208901335     -1	 307	 32	 0	 0
O        -4.7943897243    5.9120538782   -7.2378901335     -1	 30	 384	 0	 0
O        -6.7553897243    5.1680538782   -5.6538901335     -1	 388	 30	 0	 0
O         2.7306102757    5.1250538782    1.9531098665     -1	 90	 53	 0	 0
O         2.3836102757    8.9430538782    2.0871098665     -1	 92	 56	 0	 0
O         5.1546102757    2.3560538782   -0.7238901335     -1	 57	 199	 0	 0
O         2.3106102757    0.3840538782   -9.3648901335     -1	 58	 210	 0	 0
O         3.3116102757   -1.7359461218   -8.1738901335     -1	 58	 275	 0	 0
O         6.7536102757    0.9870538782   -6.8278901335     -1	 226	 60	 0	 0
O         4.7836102757    9.5940538782    1.2321098665     -1	 229	 56	 0	 0
O         6.9866102757    4.2410538782   -0.7538901335     -1	 57	 233	 0	 0
O         6.9076102757    4.6610538782   -5.9078901335     -1	 372	 62	 0	 0
O         4.9496102757    5.5520538782   -7.4208901335     -1	 374	 62	 0	 0
Si       -1.3093897243    5.5670538782    3.3401098665     -23	 97	 93	 63	 96
Si        1.8126102757    5.4430538782    3.2431098665     -23	 95	 93	 94	 79
Si        1.7786102757    3.3790538782    5.5771098665     -2	 98	 99	 100	 94
Si        1.9356102757    8.5480538782    3.5811098665     -23	 101	 102	 95	 80
O         0.2366102757    5.2940538782    2.8581098665     -1	 89	 90	 0	 0
O         2.2426102757    4.4000538782    4.3991098665     -1	 90	 91	 0	 0
O         2.1066102757    6.9360538782    3.8101098665     -1	 90	 92	 0	 0
O        -1.7093897243    4.5490538782    4.4811098665     -1	 89	 103	 0	 0
O        -1.4283897243    7.0810538782    3.8471098665     -1	 89	 104	 0	 0
O         1.9276102757    1.8700538782    5.0431098665     -1	 106	 91	 0	 0
O         2.7306102757    3.6000538782    6.8541098665     -1	 91	 107	 0	 0
O         0.2476102757    3.6580538782    5.9941098665     -1	 91	 103	 0	 0
O         0.4036102757    8.9670538782    3.8161098665     -1	 92	 104	 0	 0
O         2.8716102757    9.3050538782    4.6451098665     -1	 108	 92	 0	 0
Si       -1.3123897243    3.4960538782    5.6341098665     -2	 100	 109	 110	 96
Si       -1.1643897243    8.6550538782    3.6381098665     -23	 97	 65	 101	 111
Si       -1.2013897243   11.2990538782   -4.0168901335     -23	 353	 354	 308	 64
Si        1.6626102757    0.2960538782    5.2521098665     -2	 260	 98	 332	 333
Si        3.3666102757    3.0380538782    8.2201098665     -2	 99	 368	 335	 363
Si        4.2116102757   10.1320538782    4.9871098665     -2	 361	 362	 102	 232
O        -2.1983897243    3.7830538782    6.9451098665     -1	 103	 112	 0	 0
O        -1.5933897243    2.0000538782    5.1091098665     -1	 113	 103	 0	 0
O        -2.0003897243    9.4870538782    4.7361098665     -1	 114	 104	 0	 0
Si       -2.8233897243    3.2680538782    8.3351098665     -2	 395	 109	 390	 391
Si       -1.4383897243    0.4110538782    5.3101098665     -2	 195	 332	 110	 407
Si       -3.2603897243   10.4090538782    5.1261098665     -2	 196	 197	 198	 111
O         2.2986102757   -5.3679461218    3.0871098665     -1	 118	 311	 0	 0
O        -0.1693897243   -5.7059461218    2.2591098665     -1	 145	 118	 0	 0
O         1.5196102757   -7.7229461218    2.2241098665     -1	 118	 119	 0	 0
Si        1.3646102757   -6.1329461218    2.0231098665     -2	 115	 116	 117	 127
Si        1.2376102757   -9.2179461218    1.7001098665     -2	 125	 117	 126	 120
O         1.6356102757  -10.2709461218    2.8521098665     -1	 121	 119	 0	 0
Si        1.2036102757  -11.2929461218    4.0191098665     -2	 122	 123	 124	 120
O         1.3536102757  -12.8039461218    3.4861098665     -1	 121	 1583	 0	 0
O         2.1576102757  -11.0729461218    5.2971098665     -1	 121	 873	 0	 0
O        -0.3253897243  -11.0159461218    4.4371098665     -1	 121	 150	 0	 0
O         2.1246102757   -9.5059461218    0.3871098665     -1	 290	 119	 0	 0
O        -0.3223897243   -9.3799461218    1.3391098665     -1	 148	 119	 0	 0
O         1.8096102757   -5.7309461218    0.5301098665     -1	 118	 288	 0	 0
Si       -3.8333897243   -4.2639461218    3.5691098665     -2	 129	 130	 131	 132
O        -2.5733897243   -5.1869461218    3.1791098665     -1	 145	 128	 0	 0
O        -3.3473897243   -2.7379461218    3.7281098665     -1	 188	 128	 0	 0
O        -4.9473897243   -4.3599461218    2.4111098665     -1	 341	 128	 0	 0
O        -4.4583897243   -4.7799461218    4.9581098665     -1	 133	 128	 0	 0
Si       -5.3453897243   -4.4919461218    6.2701098665     -2	 132	 140	 134	 135
O        -5.0643897243   -2.9969461218    6.7951098665     -1	 133	 190	 0	 0
O        -6.9053897243   -4.6539461218    5.9101098665     -1	 133	 136	 0	 0
Si       -8.4343897243   -4.3769461218    6.3281098665     -2	 137	 138	 139	 135
O        -8.8663897243   -5.3989461218    7.4941098665     -1	 779	 136	 0	 0
O        -9.3873897243   -4.5969461218    5.0511098665     -1	 351	 136	 0	 0
O        -8.5853897243   -2.8659461218    6.8601098665     -1	 193	 136	 0	 0
O        -4.9473897243   -5.5449461218    7.4231098665     -1	 141	 133	 0	 0
Si       -5.3793897243   -6.5669461218    8.5901098665     -2	 140	 142	 143	 144
O        -6.9083897243   -6.2899461218    9.0071098665     -1	 779	 141	 0	 0
O        -4.4253897243   -6.3469461218    9.8681098665     -1	 141	 1910	 0	 0
O        -5.2293897243   -8.0779461218    8.0571098665     -1	 1657	 141	 0	 0
Si       -1.7373897243   -6.0179461218    2.0811098665     -2	 129	 146	 147	 116
O        -2.2073897243   -5.5819461218    0.6051098665     -1	 145	 400	 0	 0
O        -2.0013897243   -7.5919461218    2.2901098665     -1	 145	 148	 0	 0
Si       -1.8513897243   -9.1029461218    1.7571098665     -2	 153	 147	 149	 126
O        -2.2833897243  -10.1249461218    2.9241098665     -1	 148	 150	 0	 0
Si       -1.8853897243  -11.1779461218    4.0761098665     -2	 124	 149	 151	 152
O        -2.7713897243  -10.8899461218    5.3871098665     -1	 150	 1454	 0	 0
O        -2.1673897243  -12.6729461218    3.5521098665     -1	 150	 815	 0	 0
O        -2.8043897243   -9.3229461218    0.4801098665     -1	 402	 148	 0	 0
Si       -1.7323897243    0.2790538782  -10.5848901335        -23	 66	 155	 156	 157
O        -0.1723897243    0.4420538782  -10.2248901335        -1	 154	 210	 0	 0
O        -2.0143897243   -1.2159461218  -11.1098901335        -1	 154	 300	 0	 0
O        -2.1303897243    1.3320538782  -11.7368901335        -1	 154	 966	 0	 0
Si       -5.3033897243   -0.8379461218    1.2591098665     -2	 161	 162	 159	 160
O        -4.8713897243    0.1840538782    0.0921098665     -1	 378	 158	 0	 0
O        -4.3493897243   -0.6189461218    2.5371098665     -1	 188	 158	 0	 0
O        -5.1523897243   -2.3489461218    0.7261098665     -1	 341	 158	 0	 0
O        -6.8323897243   -0.5609461218    1.6771098665     -1	 163	 158	 0	 0
Si       -8.3923897243   -0.7229461218    1.3161098665     -2	 169	 162	 164	 170
O        -9.2783897243   -0.4359461218    2.6271098665     -1	 163	 165	 0	 0
Si       -9.9043897243   -0.9509461218    4.0181098665     -2	 164	 166	 167	 168
O        -8.7903897243   -0.8559461218    5.1761098665     -1	 193	 165	 0	 0
O       -11.1643897243   -0.0289461218    4.4081098665     -1	 1330	 165	 0	 0
O       -10.3893897243   -2.4769461218    3.8591098665     -1	 165	 351	 0	 0
O        -8.7903897243    0.3290538782    0.1641098665     -1	 163	 380	 0	 0
O        -8.6733897243   -2.2189461218    0.7921098665     -1	 163	 344	 0	 0
Si        5.1446102757   -4.3149461218    0.7391098665     -2	 187	 172	 173	 174
O         4.6986102757   -4.7169461218    2.2321098665     -1	 171	 311	 0	 0
O         4.2096102757   -5.0799461218   -0.3248901335     -1	 171	 288	 0	 0
O         6.6766102757   -4.7419461218    0.5031098665     -1	 171	 175	 0	 0
Si        8.2456102757   -4.4299461218    0.6811098665     -2	 182	 181	 174	 176
O         8.7156102757   -4.8669461218    2.1571098665     -1	 177	 175	 0	 0
Si        9.8296102757   -4.7709461218    3.3151098665     -2	 178	 179	 180	 176
O         9.2046102757   -5.2869461218    4.7051098665     -1	 177	 320	 0	 0
O        10.3156102757   -3.2449461218    3.4741098665     -1	 177	 359	 0	 0
O        11.0896102757   -5.6939461218    2.9251098665     -1	 177	 1405	 0	 0
O         8.5106102757   -2.8559461218    0.4731098665     -1	 357	 175	 0	 0
O         9.0826102757   -5.2619461218   -0.4158901335     -1	 183	 175	 0	 0
Si       10.3426102757   -6.1839461218   -0.8058901335     -2	 185	 186	 182	 184
O         9.8566102757   -7.7099461218   -0.9658901335     -1	 183	 1216	 0	 0
O        11.4566102757   -6.0889461218    0.3511098665     -1	 1405	 183	 0	 0
O        10.9676102757   -5.6679461218   -2.1968901335     -1	 569	 183	 0	 0
O         4.9896102757   -2.7259461218    0.5381098665     -1	 171	 355	 0	 0
Si       -3.7133897243   -1.1809461218    3.9031098665     -2	 130	 195	 189	 160
O        -4.7733897243   -1.0049461218    5.1011098665     -1	 188	 190	 0	 0
Si       -5.2183897243   -1.4069461218    6.5941098665     -2	 189	 134	 191	 192
O        -4.2833897243   -0.6419461218    7.6591098665     -1	 190	 408	 0	 0
O        -6.7523897243   -0.9799461218    6.8301098665     -1	 193	 190	 0	 0
Si       -8.3203897243   -1.2919461218    6.6521098665     -2	 194	 139	 166	 192
O        -9.1563897243   -0.4609461218    7.7501098665     -1	 193	 975	 0	 0
O        -2.3733897243   -0.3539461218    4.2451098665     -1	 113	 188	 0	 0
O        -3.8853897243    9.8940538782    6.5151098665     -1	 114	 706	 0	 0
O        -2.7743897243   11.9350538782    5.2851098665     -1	 114	 1060	 0	 0
O        -4.3743897243   10.3140538782    3.9681098665     -1	 114	 285	 0	 0
Si        5.3046102757    0.8440538782   -1.2568901335     -22	 209	 81	 69	 200
O         6.8346102757    0.5670538782   -1.6738901335     -1	 201	 199	 0	 0
Si        8.3946102757    0.7300538782   -1.3138901335     -2	 202	 203	 204	 200
O         8.7916102757   -0.3229461218   -0.1618901335     -1	 201	 357	 0	 0
O         8.6756102757    2.2250538782   -0.7888901335     -1	 233	 201	 0	 0
O         9.2806102757    0.4420538782   -2.6258901335     -1	 201	 205	 0	 0
Si        9.9056102757    0.9570538782   -4.0158901335     -2	 204	 206	 207	 208
O         8.7926102757    0.8620538782   -5.1728901335     -1	 226	 205	 0	 0
O        10.3916102757    2.4830538782   -3.8558901335     -1	 205	 240	 0	 0
O        11.1656102757    0.0350538782   -4.4058901335     -1	 205	 1325	 0	 0
O         4.8736102757   -0.1779461218   -0.0888901335     -1	 355	 199	 0	 0
Si        1.3566102757    0.1650538782  -10.6428901335        -23	 82	 155	 212	 211
O         1.5066102757   -1.3459461218  -11.1748901335        -1	 210	 282	 0	 0
O         1.7886102757    1.1870538782  -11.8098901335        -1	 210	 1799	 0	 0
Si        1.2806102757   -5.5639461218   -3.3118901335     -2	 225	 214	 215	 224
O         2.2336102757   -5.3439461218   -2.0338901335     -1	 213	 288	 0	 0
O         1.4306102757   -7.0749461218   -3.8448901335     -1	 213	 216	 0	 0
Si        1.1656102757   -8.6489461218   -3.6358901335     -2	 217	 215	 222	 223
O         2.0026102757   -9.4799461218   -4.7338901335     -1	 218	 216	 0	 0
Si        3.2626102757  -10.4029461218   -5.1238901335     -2	 217	 219	 220	 221
O         3.8876102757   -9.8869461218   -6.5138901335     -1	 218	 1614	 0	 0
O         2.7766102757  -11.9289461218   -5.2828901335     -1	 218	 1422	 0	 0
O         4.3766102757  -10.3079461218   -3.9658901335     -1	 218	 292	 0	 0
O         1.6356102757   -9.0849461218   -2.1598901335     -1	 290	 216	 0	 0
O        -0.4033897243   -8.9609461218   -3.8138901335     -1	 324	 216	 0	 0
O         1.7116102757   -4.5419461218   -4.4788901335     -1	 213	 272	 0	 0
O        -0.2493897243   -5.2869461218   -2.8938901335     -1	 322	 213	 0	 0
Si        8.3226102757    1.2990538782   -6.6488901335     -23	 227	 84	 206	 228
O         8.5866102757    2.8720538782   -6.8578901335     -1	 226	 372	 0	 0
O         9.1586102757    0.4670538782   -7.7468901335     -1	 226	 462	 0	 0
Si        5.7176102757   10.3590538782    2.2961098665     -23	 85	 230	 231	 232
O         7.2506102757    9.9310538782    2.0601098665     -1	 1321	 229	 0	 0
O         5.5626102757   11.9480538782    2.0951098665     -1	 229	 765	 0	 0
O         5.2716102757    9.9560538782    3.7891098665     -1	 108	 229	 0	 0
Si        8.5206102757    3.8140538782   -0.9898901335     -23	 234	 203	 86	 239
O         9.4556102757    4.5790538782    0.0741098665     -1	 233	 235	 0	 0
Si       10.7956102757    5.4060538782    0.4161098665     -2	 234	 236	 237	 238
O        11.8556102757    5.2300538782   -0.7818901335     -1	 1130	 235	 0	 0
O        11.4316102757    4.8440538782    1.7841098665     -1	 235	 1814	 0	 0
O        10.4296102757    6.9640538782    0.5911098665     -1	 235	 692	 0	 0
O         8.9666102757    4.2170538782   -2.4828901335     -1	 233	 240	 0	 0
Si       10.0266102757    4.0410538782   -3.6808901335     -2	 241	 242	 207	 239
O        11.3666102757    4.8680538782   -3.3388901335     -1	 1130	 240	 0	 0
O         9.3906102757    4.6030538782   -5.0468901335     -1	 372	 240	 0	 0
Si       -8.4423897243    1.9210538782   -6.3378901335     -23	 244	 245	 246	 72
O        -8.8883897243    1.5180538782   -4.8448901335     -1	 243	 382	 0	 0
O        -8.5973897243    3.5100538782   -6.5388901335     -1	 243	 388	 0	 0
O        -9.3773897243    1.1550538782   -7.4028901335     -1	 243	 587	 0	 0
Si       -8.2443897243    4.4360538782   -0.6788901335     -23	 73	 258	 253	 248
O        -9.0803897243    5.2680538782    0.4191098665     -1	 249	 247	 0	 0
Si      -10.3403897243    6.1900538782    0.8091098665     -2	 250	 251	 252	 248
O        -9.8543897243    7.7160538782    0.9681098665     -1	 249	 862	 0	 0
O       -10.9653897243    5.6750538782    2.1981098665     -1	 249	 1959	 0	 0
O       -11.4543897243    6.0950538782   -0.3488901335     -1	 249	 528	 0	 0
O        -8.7133897243    4.8730538782   -2.1548901335     -1	 254	 247	 0	 0
Si       -9.8273897243    4.7780538782   -3.3128901335     -2	 257	 253	 255	 256
O       -10.3133897243    3.2520538782   -3.4718901335     -1	 382	 254	 0	 0
O        -9.2013897243    5.2930538782   -4.7028901335     -1	 388	 254	 0	 0
O       -11.0873897243    5.7000538782   -2.9228901335     -1	 254	 528	 0	 0
O        -8.5083897243    2.8630538782   -0.4698901335     -1	 380	 247	 0	 0
Si        3.7596102757   -1.4579461218    3.7641098665     -2	 260	 261	 270	 271
O         2.4996102757   -0.5359461218    4.1541098665     -1	 106	 259	 0	 0
O         4.8726102757   -1.3629461218    4.9221098665     -1	 259	 262	 0	 0
Si        5.3426102757   -1.7989461218    6.3981098665     -2	 261	 269	 263	 264
O         4.5066102757   -0.9679461218    7.4961098665     -1	 334	 262	 0	 0
O         6.9106102757   -1.4869461218    6.5761098665     -1	 265	 262	 0	 0
Si        8.4446102757   -1.9139461218    6.3401098665     -2	 266	 267	 268	 264
O         9.3796102757   -1.1489461218    7.4051098665     -1	 265	 984	 0	 0
O         8.8896102757   -1.5119461218    4.8471098665     -1	 265	 359	 0	 0
O         8.5996102757   -3.5039461218    6.5411098665     -1	 265	 320	 0	 0
O         5.0786102757   -3.3729461218    6.6071098665     -1	 313	 262	 0	 0
O         4.3846102757   -0.9429461218    2.3741098665     -1	 355	 259	 0	 0
O         3.2736102757   -2.9839461218    3.6051098665     -1	 259	 311	 0	 0
Si        1.3146102757   -3.4889461218   -5.6308901335     -23	 273	 274	 70	 224
O        -0.2453897243   -3.6519461218   -5.9908901335     -1	 295	 272	 0	 0
O         2.2006102757   -3.7769461218   -6.9428901335     -1	 275	 272	 0	 0
Si        2.8256102757   -3.2619461218   -8.3328901335     -23	 281	 274	 83	 276
O         4.0856102757   -4.1839461218   -8.7228901335     -1	 275	 277	 0	 0
Si        4.9226102757   -5.0149461218   -9.8208901335     -2	 276	 278	 279	 280
O         4.4526102757   -4.5789461218  -11.2968901335        -1	 1753	 277	 0	 0
O         6.4896102757   -4.7029461218   -9.6418901335     -1	 572	 277	 0	 0
O         4.6576102757   -6.5889461218   -9.6118901335     -1	 657	 277	 0	 0
O         1.7116102757   -3.3569461218   -9.4908901335     -1	 282	 275	 0	 0
Si        1.2426102757   -2.9199461218  -10.9668901335        -2	 281	 211	 283	 284
O        -0.3263897243   -3.2319461218  -11.1448901335        -1	 282	 300	 0	 0
O         2.0786102757   -3.7519461218  -12.0638901335        -1	 1753	 282	 0	 0
Si       -4.8443897243   10.7500538782    2.4921098665     -23	 286	 75	 198	 287
O        -6.4133897243   10.4380538782    2.3141098665     -1	 618	 285	 0	 0
O        -4.5793897243   12.3240538782    2.2841098665     -1	 1636	 285	 0	 0
Si        2.8696102757   -5.9069461218   -0.6678901335     -2	 289	 173	 214	 127
O         3.2356102757   -7.4639461218   -0.8428901335     -1	 290	 288	 0	 0
Si        2.7496102757   -8.9899461218   -1.0018901335     -2	 289	 291	 125	 222
O         4.0096102757   -9.9129461218   -1.3918901335     -1	 290	 292	 0	 0
Si        4.8456102757  -10.7439461218   -2.4898901335     -2	 291	 221	 294	 293
O         6.4136102757  -10.4319461218   -2.3118901335     -1	 1978	 292	 0	 0
O         4.5816102757  -12.3179461218   -2.2808901335     -1	 978	 292	 0	 0
Si       -1.7753897243   -3.3749461218   -5.5738901335     -23	 273	 297	 68	 296
O        -2.2063897243   -4.3959461218   -4.4068901335     -1	 322	 295	 0	 0
O        -2.7283897243   -3.5939461218   -6.8508901335     -1	 298	 295	 0	 0
Si       -3.3653897243   -3.0319461218   -8.2178901335     -23	 297	 67	 299	 302
O        -2.3053897243   -3.2079461218   -9.4158901335     -1	 298	 300	 0	 0
Si       -1.8593897243   -2.8049461218  -10.9088901335        -2	 283	 156	 299	 301
O        -2.7933897243   -3.5699461218  -11.9728901335        -1	 1570	 300	 0	 0
O        -4.7053897243   -3.8589461218   -8.5608901335     -1	 298	 303	 0	 0
Si       -5.6393897243   -4.6239461218   -9.6248901335     -2	 305	 306	 302	 304
O        -7.1733897243   -4.1959461218   -9.3888901335     -1	 1218	 303	 0	 0
O        -5.4843897243   -6.2129461218   -9.4238901335     -1	 1431	 303	 0	 0
O        -5.1933897243   -4.2209461218  -11.1178901335        -1	 1570	 303	 0	 0
Si        1.8876102757   11.1840538782   -4.0738901335     -23	 308	 76	 309	 310
O         0.3276102757   11.0220538782   -4.4338901335     -1	 105	 307	 0	 0
O         2.7746102757   10.8970538782   -5.3858901335     -1	 307	 1807	 0	 0
O         2.1686102757   12.6800538782   -3.5488901335     -1	 307	 843	 0	 0
Si        3.6386102757   -4.5419461218    3.4301098665     -2	 115	 172	 271	 312
O         4.2756102757   -5.1039461218    4.7971098665     -1	 313	 311	 0	 0
Si        5.2286102757   -4.8839461218    6.0741098665     -2	 314	 269	 319	 312
O         4.7966102757   -5.9059461218    7.2411098665     -1	 313	 315	 0	 0
Si        5.1946102757   -6.9589461218    8.3941098665     -2	 314	 316	 317	 318
O         6.7546102757   -6.7969461218    8.7541098665     -1	 939	 315	 0	 0
O         4.3086102757   -6.6709461218    9.7051098665     -1	 315	 728	 0	 0
O         4.9126102757   -8.4539461218    7.8691098665     -1	 315	 1819	 0	 0
O         6.7576102757   -5.1609461218    5.6571098665     -1	 313	 320	 0	 0
Si        8.3176102757   -4.9989461218    6.0171098665     -2	 321	 178	 268	 319
O         8.7156102757   -6.0519461218    7.1691098665     -1	 939	 320	 0	 0
Si       -1.8093897243   -5.4489461218   -3.2538901335     -2	 225	 331	 323	 296
O        -2.0903897243   -6.9439461218   -3.7788901335     -1	 322	 324	 0	 0
Si       -1.9353897243   -8.5339461218   -3.5778901335     -2	 330	 323	 325	 223
O        -2.8703897243   -9.2989461218   -4.6418901335     -1	 324	 326	 0	 0
Si       -4.2103897243  -10.1259461218   -4.9848901335     -2	 329	 325	 327	 328
O        -5.2703897243   -9.9499461218   -3.7868901335     -1	 404	 326	 0	 0
O        -3.8443897243  -11.6829461218   -5.1598901335     -1	 1466	 326	 0	 0
O        -4.8463897243   -9.5629461218   -6.3508901335     -1	 326	 1888	 0	 0
O        -2.3813897243   -8.9359461218   -2.0848901335     -1	 402	 324	 0	 0
O        -2.6953897243   -5.1609461218   -1.9428901335     -1	 322	 400	 0	 0
O         0.0936102757   -0.0159461218    5.0741098665     -1	 113	 106	 0	 0
O         2.1326102757   -0.1409461218    6.7281098665     -1	 106	 334	 0	 0
Si        3.2466102757   -0.0449461218    7.8861098665     -2	 333	 336	 335	 263
O         3.7326102757    1.4810538782    8.0451098665     -1	 107	 334	 0	 0
O         2.6216102757   -0.5609461218    9.2751098665     -1	 337	 334	 0	 0
Si        1.7346102757   -0.2729461218   10.5881098665        -2	 338	 339	 340	 336
O         0.1746102757   -0.4349461218   10.2271098665        -1	 337	 410	 0	 0
O         2.1326102757   -1.3259461218   11.7401098665        -1	 337	 1155	 0	 0
O         2.0156102757    1.2220538782   11.1121098665        -1	 337	 369	 0	 0
Si       -5.4173897243   -3.9229461218    0.9351098665     -2	 161	 131	 342	 343
O        -4.5813897243   -4.7549461218   -0.1628901335     -1	 341	 400	 0	 0
O        -6.9863897243   -4.2349461218    0.7571098665     -1	 341	 344	 0	 0
Si       -8.5183897243   -3.8079461218    0.9931098665     -2	 345	 170	 350	 343
O        -9.4533897243   -4.5729461218   -0.0708901335     -1	 346	 344	 0	 0
Si      -10.7933897243   -5.3999461218   -0.4138901335     -2	 345	 347	 348	 349
O       -11.8533897243   -5.2239461218    0.7841098665     -1	 346	 1229	 0	 0
O       -10.4283897243   -6.9569461218   -0.5888901335     -1	 346	 1574	 0	 0
O       -11.4293897243   -4.8369461218   -1.7798901335     -1	 346	 1556	 0	 0
O        -8.9643897243   -4.2099461218    2.4861098665     -1	 351	 344	 0	 0
Si      -10.0243897243   -4.0349461218    3.6841098665     -2	 138	 350	 352	 168
O       -11.3643897243   -4.8609461218    3.3411098665     -1	 1229	 351	 0	 0
O        -2.1543897243   11.0790538782   -5.2938901335     -1	 105	 1146	 0	 0
O        -1.3523897243   12.8100538782   -3.4838901335     -1	 105	 1650	 0	 0
Si        5.2706102757   -1.2299461218    1.0631098665     -2	 209	 187	 356	 270
O         6.8306102757   -1.0679461218    1.4231098665     -1	 355	 357	 0	 0
Si        8.3606102757   -1.3449461218    1.0051098665     -2	 202	 356	 181	 358
O         9.3136102757   -1.1259461218    2.2831098665     -1	 357	 359	 0	 0
Si        9.9506102757   -1.6879461218    3.6491098665     -2	 179	 267	 358	 360
O        11.2896102757   -0.8609461218    3.9921098665     -1	 476	 359	 0	 0
O         3.8466102757   11.6890538782    5.1621098665     -1	 108	 1244	 0	 0
O         4.8486102757    9.5700538782    6.3541098665     -1	 1058	 108	 0	 0
O         4.7066102757    3.8650538782    8.5631098665     -1	 107	 364	 0	 0
Si        5.6416102757    4.6300538782    9.6271098665     -2	 363	 365	 366	 367
O         5.1956102757    4.2270538782   11.1201098665        -1	 993	 364	 0	 0
O         7.1736102757    4.2030538782    9.3911098665     -1	 364	 1006	 0	 0
O         5.4866102757    6.2190538782    9.4261098665     -1	 1873	 364	 0	 0
O         2.3066102757    3.2140538782    9.4181098665     -1	 369	 107	 0	 0
Si        1.8616102757    2.8110538782   10.9111098665        -2	 370	 371	 340	 368
O         2.7956102757    3.5760538782   11.9751098665        -1	 369	 993	 0	 0
O         0.3276102757    3.2390538782   11.1471098665        -1	 369	 392	 0	 0
Si        8.4366102757    4.3840538782   -6.3248901335     -23	 242	 227	 373	 87
O         8.8686102757    5.4050538782   -7.4918901335     -1	 372	 574	 0	 0
Si        5.3816102757    6.5730538782   -8.5878901335     -23	 377	 376	 375	 88
O         4.4286102757    6.3530538782   -9.8638901335     -1	 374	 1648	 0	 0
O         6.9106102757    6.2960538782   -9.0048901335     -1	 574	 374	 0	 0
O         5.2316102757    8.0840538782   -8.0548901335     -1	 452	 374	 0	 0
Si       -5.2693897243    1.2370538782   -1.0598901335     -22	 74	 379	 159	 71
O        -6.8293897243    1.0740538782   -1.4208901335     -1	 378	 380	 0	 0
Si       -8.3583897243    1.3510538782   -1.0028901335     -2	 169	 258	 379	 381
O        -9.3113897243    1.1320538782   -2.2798901335     -1	 380	 382	 0	 0
Si       -9.9483897243    1.6940538782   -3.6468901335     -2	 383	 244	 381	 255
O       -11.2873897243    0.8680538782   -3.9888901335     -1	 1633	 382	 0	 0
Si       -5.1923897243    6.9650538782   -8.3908901335     -23	 385	 386	 387	 77
O        -4.9113897243    8.4610538782   -7.8668901335     -1	 593	 384	 0	 0
O        -4.3053897243    6.6780538782   -9.7028901335     -1	 538	 384	 0	 0
O        -6.7523897243    6.8030538782   -8.7508901335     -1	 961	 384	 0	 0
Si       -8.3153897243    5.0050538782   -6.0138901335     -23	 389	 245	 78	 256
O        -8.7133897243    6.0590538782   -7.1668901335     -1	 961	 388	 0	 0
O        -3.3093897243    1.7420538782    8.1761098665     -1	 112	 408	 0	 0
O        -1.7103897243    3.3630538782    9.4931098665     -1	 112	 392	 0	 0
Si       -1.2403897243    2.9270538782   10.9691098665        -2	 393	 394	 371	 391
O        -2.0763897243    3.7580538782   12.0671098665        -1	 1196	 392	 0	 0
O        -1.5053897243    1.3530538782   11.1781098665        -1	 410	 392	 0	 0
O        -4.0843897243    4.1900538782    8.7251098665     -1	 396	 112	 0	 0
Si       -4.9203897243    5.0220538782    9.8231098665     -2	 395	 397	 398	 399
O        -6.4893897243    4.7100538782    9.6451098665     -1	 1387	 396	 0	 0
O        -4.6553897243    6.5960538782    9.6141098665     -1	 396	 744	 0	 0
O        -4.4503897243    4.5850538782   11.2991098665        -1	 396	 1196	 0	 0
Si       -3.3203897243   -5.6769461218   -0.5528901335     -2	 401	 146	 331	 342
O        -3.8063897243   -7.2029461218   -0.7118901335     -1	 402	 400	 0	 0
Si       -3.4413897243   -8.7609461218   -0.8868901335     -2	 153	 330	 403	 401
O        -4.7813897243   -9.5869461218   -1.2298901335     -1	 402	 404	 0	 0
Si       -5.7153897243  -10.3519461218   -2.2938901335     -2	 403	 405	 406	 327
O        -5.5613897243  -11.9419461218   -2.0928901335     -1	 546	 404	 0	 0
O        -7.2493897243   -9.9249461218   -2.0578901335     -1	 467	 404	 0	 0
O        -1.8843897243    0.0080538782    6.8031098665     -1	 113	 408	 0	 0
Si       -2.9443897243    0.1840538782    8.0011098665     -2	 409	 407	 390	 191
O        -2.3073897243   -0.3779461218    9.3681098665     -1	 410	 408	 0	 0
Si       -1.3543897243   -0.1579461218   10.6451098665        -2	 409	 394	 411	 338
O        -1.7863897243   -1.1799461218   11.8121098665        -1	 410	 1486	 0	 0
O       -22.1713897243    3.3700538782   -0.2168901335     -1	 1585	 1850	 0	 0
O       -12.2203897243  -12.9439461218    9.8091098665     -1	 1379	 1588	 0	 0
O        13.7616102757   -6.6709461218   17.3041098665        -1	 1426	 1096	 0	 0
Si      -16.9513897243    3.2040538782  -15.2948901335        -2	 1258	 2125	 1786	 1639
O         8.8056102757  -15.8219461218    5.8481098665     -1	 1609	 1864	 0	 0
O        -6.8333897243    7.2220538782  -13.9048901335        -1	 705	 1459	 0	 0
O        12.1056102757   14.3130538782   -5.4218901335     -1	 1424	 1000	 0	 0
O         8.3166102757  -16.1849461218    3.2901098665     -1	 1609	 1709	 0	 0
O        -0.1693897243    2.0770538782  -13.3218901335        -1	 966	 1799	 0	 0
O        -4.4143897243   17.4050538782    1.0211098665     -1	 638	 1927	 0	 0
O         2.5446102757   -6.2889461218   16.6061098665        -1	 1722	 1956	 0	 0
O         0.4806102757   14.6960538782   -3.5138901335     -1	 1650	 843	 0	 0
Si       10.4026102757    9.9020538782    4.8721098665     -2	 481	 1177	 982	 1640
Si        4.6976102757  -15.9039461218   -0.4938901335     -2	 746	 683	 581	 1118
O        -2.9273897243    0.4780538782   19.9471098665        -1	 1820	 1510	 0	 0
O         7.9376102757  -17.5299461218   -1.0848901335     -1	 1411	 832	 0	 0
Si       10.3266102757    4.1730538782   12.2031098665        -2	 1185	 778	 1751	 1817
O       -15.7173897243    6.3830538782  -13.8028901335        -1	 1884	 734	 0	 0
Si      -10.2643897243   11.9190538782   -6.5218901335     -2	 1795	 1159	 1974	 1839
O        -6.4113897243    2.6550538782   17.8951098665        -1	 1849	 1087	 0	 0
O        -0.6693897243   -8.5029461218  -19.1128901335        -1	 1779	 1894	 0	 0
O         4.2996102757  -16.0359461218    3.3651098665     -1	 1651	 1484	 0	 0
Si      -18.9323897243    1.7440538782   -0.8068901335     -2	 1132	 1501	 958	 951
O        -2.3843897243   -6.1069461218   16.6991098665        -1	 507	 1357	 0	 0
O         2.8526102757   -6.1999461218  -12.6138901335        -1	 1753	 945	 0	 0
O        12.0696102757    1.4930538782    4.8551098665     -1	 476	 1253	 0	 0
O        -3.7683897243   -5.9539461218  -12.4908901335        -1	 1570	 469	 0	 0
O       -15.0153897243   13.3170538782   -3.2298901335     -1	 1353	 447	 0	 0
Si      -12.3443897243    3.3150538782  -18.0438901335        -2	 1610	 1408	 1327	 1112
O       -18.7393897243    3.8860538782   -6.3508901335     -1	 1044	 1773	 0	 0
O         4.9586102757   13.7310538782    3.9311098665     -1	 1244	 765	 0	 0
O         0.6716102757    8.5090538782   19.1151098665        -1	 1203	 829	 0	 0
O         5.4466102757   14.4960538782    1.4681098665     -1	 1844	 765	 0	 0
O        -5.1543897243  -19.4279461218   -1.7198901335     -1	 1612	 789	 0	 0
O         1.6716102757    3.7350538782  -12.4368901335        -1	 1799	 1952	 0	 0
Si      -14.8653897243   11.8060538782   -3.7628901335     -2	 553	 906	 439	 1511
O        -6.3363897243   16.1670538782   -5.0168901335     -1	 1617	 1237	 0	 0
Si        2.6726102757  -14.7189461218    6.3291098665     -2	 1322	 1428	 1735	 912
Si      -14.8993897243    9.7310538782   -1.4438901335     -2	 1762	 1739	 906	 1899
Si        3.7436102757    8.8990538782   16.7741098665        -2	 1362	 1266	 893	 1471
Si        5.4956102757    9.6580538782   -8.2638901335     -2	 377	 1971	 931	 540
O        -8.3913897243   10.4630538782    4.0431098665     -1	 618	 1883	 0	 0
Si       18.8076102757   -4.8219461218    0.4851098665     -2	 1041	 1202	 1246	 1615
O        15.2226102757  -15.3209461218    4.9171098665     -1	 1729	 458	 0	 0
O       -15.6003897243    5.0200538782  -18.1868901335        -1	 1966	 1447	 0	 0
Si       -9.6043897243   -0.8189461218   19.9021098665        -2	 913	 774	 1598	 944
Si       16.3366102757  -15.2259461218    6.0751098665     -2	 674	 533	 2014	 455
O        -4.7943897243    7.0980538782  -12.2508901335        -1	 538	 1459	 0	 0
O        -0.2503897243    2.4960538782  -18.4758901335        -1	 842	 821	 0	 0
O       -15.7533897243   -6.4379461218   -3.5248901335     -1	 610	 1285	 0	 0
Si       10.4186102757   -0.4549461218   -8.1368901335     -2	 1667	 228	 1236	 1040
Si        5.2666102757   -7.5279461218   13.7291098665        -2	 723	 1836	 1270	 1532
Si      -17.0603897243  -10.8989461218    7.0321098665     -2	 2093	 1552	 1879	 1992
O       -24.0533897243   -1.9699461218    4.1121098665     -1	 1345	 773	 0	 0
O        15.8936102757   -3.0219461218   16.4951098665        -1	 595	 1512	 0	 0
Si       -8.8173897243  -10.2369461218   -2.2358901335     -2	 1346	 1205	 406	 1605
O        -1.5483897243   24.1860538782    1.1711098665     -1	 1515	 526	 0	 0
Si       -4.2543897243   -7.4799461218  -12.6498901335        -2	 1153	 635	 438	 512
Si        3.2906102757   -2.6909461218   15.5511098665        -2	 1482	 1875	 749	 872
O        15.8206102757  -11.5799461218    5.0431098665     -1	 919	 607	 0	 0
O        -2.0783897243  -13.3209461218    9.6201098665     -1	 1537	 1581	 0	 0
O       -22.4533897243   -0.3489461218    5.4291098665     -1	 773	 878	 0	 0
O       -10.7793897243   15.5650538782   -7.5538901335     -1	 1565	 656	 0	 0
O        15.0936102757   -7.5819461218   -4.0978901335     -1	 1268	 1700	 0	 0
Si       12.2246102757   -0.0959461218    5.0561098665     -2	 729	 437	 1982	 360
Si      -14.8223897243   15.4600538782   -8.7738901335     -2	 2041	 882	 606	 1199
O        17.9486102757    0.1410538782   -7.9098901335     -1	 563	 1638	 0	 0
O        18.1246102757    4.2790538782   -5.2108901335     -1	 1646	 991	 0	 0
O       -23.0513897243   -4.0899461218    5.3051098665     -1	 1345	 1843	 0	 0
O        11.6626102757    8.9800538782    4.4821098665     -1	 698	 424	 0	 0
O         1.5506102757  -24.1789461218   -1.1698901335     -1	 545	 1776	 0	 0
Si       -8.6643897243    1.2200538782  -16.8978901335        -2	 825	 1996	 1382	 527
O        -4.8023897243   -2.2669461218  -18.5908901335        -1	 1033	 1220	 0	 0
O         9.6556102757    9.4120538782    1.1411098665     -1	 1321	 692	 0	 0
O        10.3536102757    1.2350538782    7.9221098665     -1	 710	 984	 0	 0
O       -10.2753897243    4.5000538782  -15.2508901335        -1	 1275	 686	 0	 0
O        15.7196102757   -6.3759461218   13.8051098665        -1	 1037	 999	 0	 0
O         1.0626102757  -23.7589461218   -3.7168901335     -1	 545	 585	 0	 0
O         9.5316102757   10.3080538782   -7.2568901335     -1	 745	 800	 0	 0
O         2.5126102757   10.1670538782   20.0001098665        -1	 1203	 1214	 0	 0
O       -13.9903897243   -2.7249461218  -10.8908901335        -1	 1081	 594	 0	 0
O        -5.4963897243    0.1630538782  -22.8228901335        -1	 1175	 1048	 0	 0
Si      -18.8823897243   -0.8999461218    6.8481098665     -2	 602	 1092	 719	 1415
O        11.2426102757    5.7640538782  -11.7368901335        -1	 1593	 1741	 0	 0
Si        0.7836102757  -14.5089461218  -12.1998901335        -2	 874	 699	 551	 1939
O        -4.5023897243   18.0530538782   -5.0468901335     -1	 1617	 1193	 0	 0
O        22.8676102757   -5.7939461218    4.4511098665     -1	 1125	 1519	 0	 0
O        -9.5383897243  -18.8839461218    0.9281098665     -1	 1329	 1094	 0	 0
Si       15.3636102757   -2.8549461218   12.6531098665        -2	 1235	 1144	 519	 1272
O         2.7386102757  -16.4089461218   -9.7308901335     -1	 796	 557	 0	 0
O         1.2156102757  -12.3009461218  -18.3788901335        -1	 579	 1568	 0	 0
O        11.3556102757   -0.8849461218    9.1141098665     -1	 1488	 984	 0	 0
Si      -22.1053897243    2.4280538782   -6.0838901335     -2	 977	 2051	 879	 1696
O         9.0356102757    1.3640538782  -16.1448901335        -1	 1107	 1174	 0	 0
O         9.1276102757  -11.0149461218   12.0351098665        -1	 1337	 718	 0	 0
Si       -1.4313897243   -5.8869461218   17.9761098665        -2	 435	 1003	 2140	 1823
O         0.8246102757   19.9670538782    4.4541098665     -1	 696	 544	 0	 0
Si       12.2746102757   -2.7399461218   12.7111098665        -2	 1114	 803	 1039	 1235
O        -8.1403897243   19.5460538782   -0.5978901335     -1	 633	 584	 0	 0
Si      -22.1823897243   -3.3009461218    1.2461098665     -2	 1025	 621	 2054	 1101
O        -5.3683897243   -7.5759461218  -13.8078901335        -1	 1889	 469	 0	 0
O        20.4206102757   -5.6679461218    5.4031098665     -1	 1186	 1519	 0	 0
Si      -17.3763897243   -0.6739461218    4.1571098665     -2	 1921	 1135	 719	 575
Si       -8.9313897243  -13.3219461218   -2.5598901335     -2	 1945	 1443	 1605	 1240
O         2.6616102757  -22.1379461218   -2.3998901335     -1	 545	 1672	 0	 0
O         6.4106102757   -4.2839461218  -14.7958901335        -1	 1050	 947	 0	 0
O        -6.2583897243   14.1120538782    3.2341098665     -1	 1636	 1460	 0	 0
O        16.3176102757   -2.6349461218   13.9311098665        -1	 500	 1512	 0	 0
O       -11.4943897243   13.1860538782   -3.2958901335     -1	 1962	 1868	 0	 0
O        15.2986102757   -9.5919461218   -2.4128901335     -1	 1834	 1268	 0	 0
O         0.9776102757   23.6410538782    5.3741098665     -1	 1134	 990	 0	 0
O        15.9706102757    2.7070538782    9.1651098665     -1	 1765	 743	 0	 0
Si      -14.8273897243    9.1620538782    3.8921098665     -2	 1642	 1661	 750	 2184
Si       14.9816102757    2.3020538782  -18.5508901335        -2	 2070	 613	 1182	 1047
Si       -2.1743897243   23.6700538782    2.5621098665     -2	 841	 899	 2036	 468
O        -7.0963897243    1.5320538782  -16.7198901335        -1	 483	 998	 0	 0
Si      -11.9243897243    6.5320538782   -1.8248901335     -2	 257	 252	 1917	 1464
O        18.7296102757    2.4960538782   -7.0458901335     -1	 563	 991	 0	 0
O         2.9566102757   23.6160538782    3.6451098665     -1	 1061	 1134	 0	 0
O         2.2776102757    1.9520538782  -14.2738901335        -1	 1147	 1799	 0	 0
O         7.4806102757   19.3340538782   -4.3508901335     -1	 1708	 655	 0	 0
O        15.7116102757  -15.7409461218    7.4641098665     -1	 458	 1452	 0	 0
O        -4.3743897243    9.1280538782    8.9801098665     -1	 706	 744	 0	 0
O       -15.9683897243   -2.7009461218   -9.1618901335     -1	 594	 604	 0	 0
O        -0.8193897243  -18.3249461218   -7.5488901335     -1	 1566	 1718	 0	 0
Si      -17.1813897243  -13.9819461218    6.6971098665     -2	 1210	 1830	 2090	 1552
Si       -3.6803897243    7.1930538782  -11.0928901335        -2	 1602	 386	 459	 766
O        16.4376102757   10.3900538782   -5.6398901335     -1	 1273	 955	 0	 0
O         4.6596102757   10.4900538782   -7.1658901335     -1	 452	 1807	 0	 0
Si       12.4616102757   10.7920538782   -4.2698901335     -2	 726	 1766	 1777	 1590
O       -12.0273897243   -9.7639461218    3.1061098665     -1	 1490	 907	 0	 0
O        22.3386102757    1.7180538782   -1.0428901335     -1	 1257	 1675	 0	 0
Si       -0.7043897243   20.2440538782    4.8711098665     -2	 1631	 508	 559	 708
Si        2.1756102757  -23.6639461218   -2.5588901335     -2	 489	 482	 516	 2002
Si       -5.8423897243  -13.4369461218   -2.6178901335     -2	 850	 1443	 405	 1053
O        17.3186102757   -4.7549461218   15.1221098665        -1	 1037	 1512	 0	 0
O       -13.9123897243   -4.7799461218   -2.6408901335     -1	 610	 1556	 0	 0
Si      -10.4773897243  -15.6239461218    2.4611098665     -2	 629	 1166	 1647	 1208
Si      -10.4003897243   -9.8959461218   -4.8698901335     -2	 1346	 1643	 682	 1767
O         1.7366102757  -14.2889461218  -10.9218901335        -1	 557	 496	 0	 0
O       -17.3933897243   -0.9669461218   -7.7888901335     -1	 604	 853	 0	 0
O       -13.3353897243   11.5290538782   -4.1808901335     -1	 1868	 447	 0	 0
O         5.6516102757   11.3000538782    8.1641098665     -1	 1058	 1085	 0	 0
Si       -2.1573897243   -9.2339461218  -14.1378901335        -2	 1153	 1746	 768	 680
O         0.9456102757  -22.3959461218    0.6671098665     -1	 1271	 1776	 0	 0
Si        2.3736102757  -14.8509461218   -9.5558901335     -2	 1314	 652	 501	 551
O        13.3376102757  -11.5229461218    4.1831098665     -1	 1297	 919	 0	 0
O        -0.8553897243   21.7550538782    5.4041098665     -1	 990	 544	 0	 0
Si       22.0996102757    3.8770538782   -6.5788901335     -2	 2025	 1715	 1470	 1840
O         4.9256102757   15.2980538782   -0.9758901335     -1	 1844	 1304	 0	 0
O       -15.7933897243    0.6540538782   -6.4718901335     -1	 653	 853	 0	 0
Si       18.8846102757    0.9070538782   -6.8448901335     -2	 529	 1863	 478	 926
Si        2.1596102757    9.2410538782   14.1401098665        -2	 1266	 1907	 1292	 570
O       -15.5123897243    4.3720538782  -12.1178901335        -1	 1163	 1884	 0	 0
O         5.3486102757   15.6850538782   -3.5418901335     -1	 1758	 1304	 0	 0
Si       -4.9963897243   -0.7069461218   17.1541098665        -2	 1929	 809	 716	 1713
Si       -7.7423897243   19.6790538782   -4.4568901335     -2	 986	 1483	 980	 2038
Si       11.8546102757   -5.9559461218   -3.5078901335     -2	 1626	 186	 954	 1412
O         2.9956102757    8.4090538782   13.0421098665        -1	 1402	 564	 0	 0
Si      -10.2963897243    3.5450538782    8.4741098665     -2	 1121	 1954	 1111	 1664
Si        8.0236102757   -5.1309461218   -9.8778901335     -2	 1323	 1596	 279	 1928
O         4.4526102757   -3.3929461218  -16.3088901335        -1	 947	 1392	 0	 0
Si        8.4706102757    6.4580538782   -8.6448901335     -2	 1771	 1316	 373	 376
O       -18.0123897243   -0.1119461218    2.7911098665     -1	 514	 1572	 0	 0
O        -4.4503897243    3.3990538782   16.3111098665        -1	 1571	 1087	 0	 0
O        -7.3303897243   -1.7219461218  -22.7928901335        -1	 687	 1175	 0	 0
Si       17.1066102757    8.2600538782    0.6361098665     -2	 1809	 2026	 1179	 1448
Si        0.7456102757  -11.8649461218  -19.8548901335        -2	 1038	 502	 1319	 2080
O       -11.5313897243   -0.8189461218   11.9931098665        -1	 1621	 623	 0	 0
O         4.4166102757  -17.3989461218   -1.0188901335     -1	 425	 1119	 0	 0
O        15.3356102757    3.2280538782  -12.6908901335        -1	 1378	 856	 0	 0
O        15.0176102757  -13.3109461218    3.2331098665     -1	 1729	 919	 0	 0
Si       -7.6703897243   19.1100538782    0.8781098665     -2	 1794	 510	 2110	 1079
Si        0.5926102757  -23.3219461218   -5.1928901335     -2	 489	 1082	 1493	 2007
O        15.7876102757  -10.0129461218    0.1341098665     -1	 1834	 738	 0	 0
Si      -10.7163897243    0.3290538782   -7.7448901335     -2	 1569	 1508	 669	 246
O        11.0136102757  -11.4219461218   10.2561098665        -1	 971	 718	 0	 0
O        16.3606102757    4.6610538782    1.6911098665     -1	 1916	 1276	 0	 0
O        -8.7813897243    8.5090538782   11.5151098665        -1	 1893	 1479	 0	 0
Si       -4.9253897243   -1.2759461218   22.4891098665        -2	 1372	 1901	 2143	 1984
O        -0.9433897243   22.4020538782   -0.6648901335     -1	 1385	 1515	 0	 0
Si       -5.0663897243   10.0500538782   -8.0678901335     -2	 385	 1524	 1549	 1204
Si      -15.5223897243   -2.2979461218  -10.6548901335        -2	 1586	 492	 2134	 535
Si       15.4476102757   -3.4239461218   17.9881098665        -2	 2170	 466	 1603	 1309
Si        3.9126102757    9.9990538782  -10.8968901335        -2	 658	 1971	 1599	 1832
O        -5.0243897243  -10.0879461218    9.7421098665     -1	 1657	 1368	 0	 0
O        -1.2133897243   12.3080538782   18.3811098665        -1	 1961	 923	 0	 0
O        -9.2473897243  -16.8919461218   -0.7658901335     -1	 1329	 1343	 0	 0
O       -11.2793897243    9.4500538782    2.3411098665     -1	 1089	 862	 0	 0
O         4.6956102757   -1.8879461218   21.0161098665        -1	 691	 751	 0	 0
O       -20.4163897243   -0.4729461218    7.0841098665     -1	 878	 494	 0	 0
O        15.8646102757   -4.2839461218   -7.1968901335     -1	 1591	 1944	 0	 0
Si      -17.0283897243   -2.5249461218   -7.9638901335     -2	 2124	 1336	 535	 552
O         1.6606102757  -20.0179461218   -3.5908901335     -1	 1366	 1672	 0	 0
O       -15.7083897243   15.7480538782   -7.4628901335     -1	 1948	 477	 0	 0
Si       16.4566102757  -12.1419461218    6.4091098665     -2	 674	 1164	 471	 2016
O        22.9776102757   -1.6329461218    2.0301098665     -1	 1425	 755	 0	 0
Si       10.2496102757   -1.5549461218   19.5341098665        -2	 1989	 1732	 1813	 1303
Si      -15.4723897243   -4.9419461218   -3.0008901335     -2	 548	 461	 1790	 1704
[...]
 1901      O      -4.6433897243     0.2190538782    23.0141098665
 1902      O     -16.1603897243     1.0490538782    -3.8978901335
 1903      O     -12.1043897243   -14.3069461218     5.4251098665
 1904      O      -9.2103897243    -2.8859461218   -16.0548901335
 1905      O      -9.0333897243    -1.3569461218    16.1471098665
 1906      O       5.1196102757    -1.5009461218    18.4511098665
 1907      O       0.5906102757     8.9290538782    13.9621098665
 1908      Si     -2.3103897243   -20.6919461218     0.5241098665
 1909      Si      8.1696102757   -10.1589461218     8.0121098665
 1910      Si     -3.7893897243    -6.9089461218    11.2341098665
 1911      O      22.3786102757    -5.3729461218     1.9041098665
 1912      Si    -16.5633897243    -1.9539461218    15.9201098665
 1913      Si      7.9016102757    -1.9169461218   -22.8678901335
 1914      O       9.2886102757     8.6210538782     8.7271098665
 1915      O       6.8296102757     6.7150538782   -14.1588901335
 1916      Si     15.4746102757     4.9490538782     3.0031098665
 1917      O     -13.4933897243     6.2190538782    -2.0028901335
 1918      O      -9.8933897243     6.4680538782    12.7471098665
 1919      Si     -4.0143897243   -23.4339461218    -2.4438901335
 1920      O       3.6936102757     0.2320538782    19.8241098665
 1921      O     -17.0113897243    -2.2309461218     3.9821098665
 1922      O     -22.9743897243     1.6390538782    -2.0258901335
 1923      O      10.4686102757     8.2120538782   -11.1868901335
 1924      Si     11.9646102757     1.8470538782   -13.1578901335
 1925      Si     -4.2863897243   -15.8539461218     2.3461098665
 1926      O      12.0816102757    -4.8829461218    18.2551098665
 1927      Si     -4.5693897243    18.9950538782     0.8201098665
 1928      O       8.4696102757    -4.7279461218   -11.3708901335
 1929      O      -4.7323897243     0.8670538782    16.9451098665
 1930      O      -7.3263897243    -7.8699461218   -10.3088901335
 1931      O     -22.3773897243     5.3800538782    -1.9008901335
 1932      O       4.1336102757   -10.8089461218     7.0061098665
 1933      Si      4.8006102757    -1.8019461218   -22.8108901335
 1934      O      -9.2333897243    -6.1889461218    15.0801098665
 1935      O       0.7446102757    12.6030538782    14.8821098665
 1936      O      -7.3293897243    -9.5059461218    -7.2108901335
 1937      O      -3.3013897243   -18.2679461218    -8.4078901335
 1938      O      -2.7363897243    16.4150538782     9.7331098665
 1939      O       1.2146102757   -13.4869461218   -13.3668901335
 1940      O      -4.3803897243   -21.8759461218    -2.2688901335
 1941      O      24.0556102757     1.9760538782    -4.1098901335
 1942      O      -9.2863897243    -8.6149461218    -8.7238901335
 1943      O       2.5006102757    16.5430538782     6.6011098665
 1944      Si     14.9776102757    -3.9959461218    -5.8848901335
 1945      O      -9.8843897243   -13.5419461218    -3.8368901335
 1946      Si      9.2566102757   -19.4449461218     1.7581098665
 1947      O       9.3656102757    15.5360538782    -3.6158901335
 1948      Si    -16.3343897243    15.2320538782    -6.0728901335
 1949      O      -1.6243897243    18.4570538782     8.5021098665
 1950      Si    -15.3953897243     0.7860538782   -10.3318901335
 1951      O      -1.9233897243    15.2160538782    -2.5948901335
 1952      Si      1.5176102757     5.3240538782   -12.6378901335
 1953      O     -15.3733897243     3.8700538782     9.7461098665
 1954      O     -10.9323897243     4.1070538782     7.1081098665
 1955      Si     19.0056102757    -2.3059461218     6.1441098665
 1956      Si      3.1696102757    -5.7739461218    15.2171098665
 1957      Si    -15.4383897243    -2.8679461218    -5.3198901335
 1958      O      -8.8573897243     2.7810538782    18.8461098665
 1959      Si    -11.8523897243     5.9630538782     3.5101098665
 1960      O       9.4666102757    10.3320538782   -12.3778901335
 1961      Si     -0.7433897243    11.8710538782    19.8571098665
 1962      Si    -11.6493897243    14.7760538782    -3.4968901335
 1963      O      -0.9003897243   -17.9059461218   -12.7018901335
 1964      O       1.5836102757     4.3820538782   -18.5058901335
 1965      O       5.1566102757    19.4340538782     1.7221098665
 1966      Si    -15.3193897243     6.5150538782   -17.6618901335
 1967      Si     -0.8653897243    15.0840538782     6.8671098665
 1968      O     -15.2563897243     2.5070538782     5.3631098665
 1969      O      -8.8143897243    10.0770538782     6.6081098665
 1970      Si    -15.4773897243   -11.2399461218     9.6651098665
 1971      O       5.0256102757    10.0950538782    -9.7398901335
 1972      O      -8.6373897243    10.6020538782    -9.4858901335
 1973      Si    -10.4933897243    -5.2669461218    15.4701098665
 1974      O     -10.8893897243    11.4040538782    -5.1328901335
 1975      Si     21.9096102757    -4.9369461218     0.4281098665
 1976      O      -1.8763897243     8.5910538782    13.1341098665
 1977      O      -2.4493897243    -6.0829461218    11.5771098665
 1978      Si      7.9476102757   -10.8589461218    -2.5478901335
 1979      O      -9.2103897243    -4.0719461218   -11.0428901335
 1980      O       4.8596102757    15.3220538782    -6.0988901335
 1981      Si      3.5626102757   -10.2699461218    10.7611098665
 1982      O      11.7786102757    -0.4989461218     6.5491098665
 1983      O      -1.0203897243    16.6740538782     6.6661098665
 1984      O      -6.4853897243    -1.4379461218    22.1291098665
 1985      O       3.9646102757    -4.1589461218   -13.8448901335
 1986      O       2.9296102757    -0.4709461218   -19.9448901335
 1987      Si     12.5036102757    14.4460538782    -9.2818901335
 1988      O     -12.1563897243    -0.8389461218   -10.9218901335
 1989      O       9.1366102757    -1.6499461218    18.3761098665
 1990      O       8.9696102757     1.3870538782   -21.2658901335
 1991      O      13.8336102757     5.2060538782    -2.5108901335
 1992      O     -15.9463897243   -10.8029461218     8.1891098665
 1993      O      -8.2163897243    13.8180538782     6.7331098665
 1994      Si     -5.4223897243   -10.2209461218    13.6011098665
 1995      Si     -9.3743897243    16.3680538782    -2.0898901335
 1996      O      -9.5003897243     2.0520538782   -15.7998901335
 1997      O      -5.4443897243   -13.3039461218    -6.4768901335
 1998      O      -8.8113897243     7.2470538782   -12.1758901335
 1999      Si     -0.7383897243    18.1690538782     7.1911098665
 2000      Si     15.4026102757     5.5180538782    -2.3318901335
 2001      O      -9.1583897243   -17.5399461218     5.3031098665
 2002      H       3.1886102757   -24.4049461218    -2.8728901335
 2003      H       0.9836102757   -24.7369461218     1.0681098665
 2004      H      -2.7713897243   -24.5979461218     1.1371098665
 2005      H      -5.0903897243   -24.0979461218    -2.7188901335
 2006      H      -3.2603897243   -23.8219461218    -5.9908901335
 2007      H       1.2636102757   -23.9899461218    -6.0738901335
 2008      H       4.3086102757   -20.3789461218     5.4551098665
 2009      H       8.0636102757   -20.5179461218     5.3851098665
 2010      H       8.3436102757   -19.7709461218    -1.7568901335
 2011      H      10.2686102757   -20.1859461218     1.4441098665
 2012      H      11.3886102757   -16.1599461218     9.7721098665
 2013      H      15.1436102757   -16.2989461218     9.7021098665
 2014      H      17.3486102757   -15.9669461218     5.7621098665
 2015      H      15.4236102757   -15.5519461218     2.5601098665
 2016      H      17.5326102757   -11.4789461218     6.6841098665
 2017      H      17.4256102757   -10.2379461218    -1.5688901335
 2018      H      15.6406102757    -7.3539461218    18.5901098665
 2019      H      17.8456102757    -7.0219461218    14.6501098665
 2020      H      22.3006102757    -6.3519461218     6.6881098665
 2021      H      24.5056102757    -6.0199461218     2.7481098665
 2022      H      24.6896102757    -1.5309461218     3.6711098665
 2023      H      24.5816102757    -0.2909461218    -4.5828901335
 2024      H      24.7656102757     4.1980538782    -3.6598901335
 2025      H      22.4466102757     4.6980538782    -7.5168901335
 2026      H      18.1826102757     8.9240538782     0.9111098665
 2027      H      18.0756102757    10.1640538782    -7.3428901335
 2028      H      18.2586102757    14.6520538782    -6.4198901335
 2029      H      15.9396102757    15.1520538782   -10.2768901335
 2030      H      11.6756102757    19.3780538782    -1.8488901335
 2031      H       9.3566102757    19.8780538782    -5.7058901335
 2032      H       5.0926102757    24.1040538782     2.7221098665
 2033      H       2.7736102757    24.6040538782    -1.1348901335
 2034      H       5.6016102757    20.0170538782    -5.6358901335
 2035      H      -0.9813897243    24.7430538782    -1.0658901335
 2036      H      -3.1863897243    24.4110538782     2.8751098665
 2037      H      -4.3063897243    20.3850538782    -5.4518901335
 2038      H      -8.0613897243    20.5240538782    -5.3828901335
 2039      H     -10.2663897243    20.1920538782    -1.4418901335
 2040      H     -11.3863897243    16.1660538782    -9.7698901335
 2041      H     -15.1423897243    16.3050538782    -9.6998901335
 2042      H     -17.3473897243    15.9730538782    -5.7588901335
 2043      H     -17.5303897243    11.4850538782    -6.6818901335
 2044      H     -17.4233897243    10.2450538782     1.5711098665
 2045      H     -15.6383897243     7.3610538782   -18.5878901335
 2046      H     -17.8433897243     7.0290538782   -14.6468901335
 2047      H     -18.5423897243     6.2190538782    -6.7558901335
 2048      H     -22.2983897243     6.3580538782    -6.6858901335
 2049      H     -24.5033897243     6.0260538782    -2.7458901335
 2050      H     -24.6873897243     1.5370538782    -3.6678901335
 2051      H     -22.8563897243     1.8130538782    -6.9398901335
 2052      H     -24.5803897243     0.2970538782     4.5851098665
 2053      H     -24.7633897243    -4.1909461218     3.6621098665
 2054      H     -22.9333897243    -3.9159461218     0.3911098665
 2055      H     -22.4453897243    -4.6909461218     7.5191098665
 2056      H     -15.7003897243    11.7610538782    -9.9528901335
 2057      H     -10.3433897243    14.4640538782     5.8891098665
 2058      H      -3.2633897243    18.6830538782    10.2061098665
 2059      H      -1.4783897243    15.7990538782    -9.9528901335
 2060      H       2.2766102757    15.6590538782   -10.0228901335
 2061      H      12.1846102757    15.2920538782   -10.2068901335
 2062      H      16.1506102757    10.5790538782   -10.5438901335
 2063      H      17.7616102757     5.7070538782   -15.3078901335
 2064      H      15.4436102757     6.2070538782   -19.1648901335
 2065      H      22.6566102757     0.1240538782    -7.7838901335
 2066      H      22.5806102757    -5.6049461218    -0.4538901335
 2067      H      17.5016102757    -4.5099461218    -8.8998901335
 2068      H      15.5766102757    -4.0949461218   -12.1018901335
 2069      H      17.5786102757     1.2190538782   -16.2308901335
 2070      H      15.6536102757     1.6340538782   -19.4318901335
 2071      H      11.6876102757     6.3470538782   -19.0948901335
 2072      H       8.8596102757    10.9330538782   -14.5938901335
 2073      H      11.5996102757    13.6490538782     5.4811098665
 2074      H       5.1046102757    11.0730538782   -14.5238901335
 2075      H       8.3626102757     1.9890538782   -23.4818901335
 2076      H      10.4986102757    -2.9999461218   -20.5478901335
 2077      H       8.5736102757    -2.5849461218   -23.7498901335
 2078      H      10.4216102757    -8.7289461218   -13.2168901335
 2079      H       8.4966102757    -8.3139461218   -16.4188901335
 2080      H       1.4166102757   -12.5329461218   -20.7358901335
 2081      H       3.3416102757   -12.9479461218   -17.5338901335
 2082      H       1.3406102757   -18.2609461218   -13.4048901335
 2083      H       3.2656102757   -18.6759461218   -10.2038901335
 2084      H       8.4206102757   -14.0419461218    -9.0878901335
 2085      H      10.3456102757   -14.4569461218    -5.8858901335
 2086      H      -5.5993897243   -20.0109461218     5.6391098665
 2087      H      -9.3553897243   -19.8719461218     5.7081098665
 2088      H     -11.6733897243   -19.3719461218     1.8511098665
 2089      H     -15.9383897243   -15.1459461218    10.2791098665
 2090      H     -18.2573897243   -14.6459461218     6.4221098665
 2091      H     -12.1823897243   -15.2849461218    10.2091098665
 2092      H     -16.4263897243   -14.3699461218     3.1511098665
 2093      H     -18.0733897243   -10.1569461218     7.3451098665
 2094      H     -16.1483897243   -10.5719461218    10.5471098665
 2095      H     -11.6853897243    -6.3399461218    19.0971098665
 2096      H     -17.7603897243    -5.7009461218    15.3101098665
 2097      H     -15.4413897243    -6.2009461218    19.1671098665
 2098      H     -17.5763897243    -1.2129461218    16.2331098665
 2099      H     -15.6513897243    -1.6279461218    19.4351098665
 2100      H     -10.4963897243     3.0060538782    20.5501098665
 2101      H      -8.5713897243     2.5910538782    23.7521098665
 2102      H     -17.4993897243     4.5160538782     8.9021098665
 2103      H     -15.5753897243     4.1010538782    12.1041098665
 2104      H     -10.4193897243     8.7350538782    13.2191098665
 2105      H      -8.4953897243     8.3200538782    16.4211098665
 2106      H      -3.3393897243    12.9540538782    17.5371098665
 2107      H      -1.4143897243    12.5390538782    20.7381098665
 2108      H      -8.4183897243    14.0490538782     9.0901098665
 2109      H      -1.3383897243    18.2680538782    13.4071098665
 2110      H      -8.3423897243    19.7770538782     1.7591098665
 2111      H      -1.2623897243    23.9960538782     6.0771098665
 2112      H      -4.8033897243    11.4400538782   -14.3398901335
 2113      H       1.7796102757     6.7140538782   -18.9108901335
 2114      H       4.6076102757     2.1280538782   -23.4118901335
 2115      H     -11.8833897243     7.2210538782   -18.6568901335
 2116      H      -5.3003897243     2.4950538782   -23.2278901335
 2117      H      -9.0553897243     2.6350538782   -23.1588901335
 2118      H      -9.6133897243    -1.9099461218   -23.4118901335
 2119      H     -11.4443897243    -2.1859461218   -20.1408901335
 2120      H      -3.1073897243   -12.3649461218   -20.6518901335
 2121      H      -4.9373897243   -12.6399461218   -17.3808901335
 2122      H     -11.5203897243    -7.9139461218   -12.8098901335
 2123      H      -9.6903897243    -7.6389461218   -16.0808901335
 2124      H     -18.1043897243    -3.1889461218    -8.2388901335
 2125      H     -18.0273897243     2.5400538782   -15.5698901335
 2126      H      -2.5483897243    -7.8199461218   -20.3988901335
 2127      H     -16.1973897243     2.8160538782   -18.8408901335
 2128      H      -3.1833897243   -18.0929461218   -13.3208901335
 2129      H      -5.0143897243   -18.3689461218   -10.0498901335
 2130      H     -11.5973897243   -13.6429461218    -5.4788901335
 2131      H      -9.7663897243   -13.3679461218    -8.7498901335
 2132      H     -18.1803897243    -8.9169461218    -0.9088901335
 2133      H     -16.3493897243    -8.6419461218    -4.1798901335
 2134      H     -16.2733897243    -2.9129461218   -11.5108901335
 2135      H      -9.8433897243   -19.0959461218    -1.4198901335
 2136      H      -2.2743897243   -15.6529461218    10.0251098665
 2137      H       1.4806102757   -15.7919461218     9.9561098665
 2138      H      -8.8583897243   -10.9269461218    14.5961098665
 2139      H      -5.1023897243   -11.0659461218    14.5271098665
 2140      H      -1.7783897243    -6.7079461218    18.9131098665
 2141      H       1.9776102757    -6.8469461218    18.8441098665
 2142      H      -8.3613897243    -1.9819461218    23.4841098665
 2143      H      -4.6053897243    -2.1219461218    23.4151098665
 2144      H       5.3026102757    -2.4889461218    23.2311098665
 2145      H       9.0576102757    -2.6279461218    23.1611098665
 2146      H       9.6156102757     1.9160538782    23.4141098665
 2147      H      11.4466102757     2.1920538782    20.1431098665
 2148      H      -1.2043897243     7.9650538782    20.4711098665
 2149      H       2.5506102757     7.8260538782    20.4011098665
 2150      H       3.1096102757    12.3710538782    20.6541098665
 2151      H       4.9396102757    12.6470538782    17.3831098665
 2152      H       3.1856102757    18.1000538782    13.3241098665
 2153      H       5.0156102757    18.3750538782    10.0521098665
 2154      H       3.2616102757    23.8280538782     5.9931098665
 2155      H      -1.9753897243     6.8540538782   -18.8418901335
 2156      H       1.2066102757    -7.9589461218   -20.4678901335
 2157      H       2.2186102757    -2.6929461218   -20.3948901335
 2158      H       4.0496102757    -2.4169461218   -23.6658901335
 2159      H      -5.0893897243    -2.0779461218   -23.4958901335
 2160      H      15.9316102757     5.4320538782   -12.0368901335
 2161      H      16.4286102757    14.3770538782    -3.1488901335
 2162      H       9.8456102757    19.1030538782     1.4221098665
 2163      H       9.7686102757    13.3740538782     8.7531098665
 2164      H      11.5226102757     7.9210538782    12.8121098665
 2165      H       9.6926102757     7.6450538782    16.0841098665
 2166      H       5.0916102757     2.0840538782    23.4981098665
 2167      H      -4.0473897243     2.4230538782    23.6681098665
 2168      H      -2.2173897243     2.6990538782    20.3971098665
 2169      H      11.8856102757    -7.2149461218    18.6601098665
 2170      H      16.1986102757    -2.8089461218    18.8441098665
 2171      H      18.0296102757    -2.5339461218    15.5721098665
 2172      H      16.2756102757     2.9190538782    11.5131098665
 2173      H      18.5446102757    -6.2119461218     6.7581098665
 2174      H      18.1056102757     3.1950538782     8.2421098665
 2175      H      22.8586102757    -1.8069461218     6.9421098665
 2176      H      22.9346102757     3.9220538782    -0.3888901335
 2177      H      15.9206102757    -6.6069461218    11.4481098665
 2178      H      15.7016102757   -11.7539461218     9.9561098665
 2179      H       8.5606102757   -11.5729461218    14.2731098665
 2180      H       4.8056102757   -11.4339461218    14.3431098665
 2181      H      15.5006102757    -9.8229461218    -4.7708901335
 2182      H     -22.6553897243    -0.1179461218     7.7871098665
 2183      H     -22.5783897243     5.6110538782     0.4561098665
 2184      H     -15.4983897243     9.8300538782     4.7731098665
 2185      H     -15.4223897243    15.5580538782    -2.5578901335
 2186      H     -15.9193897243     6.6140538782   -11.4458901335
 2187      H      -3.1653897243    -2.4929461218   -20.2938901335
 2188      H     -18.6893897243    -4.8309461218     7.4491098665
 2189      H     -15.9293897243    -5.4259461218    12.0391098665
 2190      H       3.1666102757     2.4990538782    20.2971098665
 2191      H      16.3516102757     8.6480538782     4.1821098665
 2192      H      18.6916102757     4.8370538782    -7.4468901335
 2193      H      -8.5583897243    11.5800538782   -14.2708901335
 ----------------------------------------------------------------
 Nuclear Repulsion Energy =     5895684.69043079 hartrees
 There are      300 alpha and      300 beta electrons
 Total job time:  64474.90s(wall), 1192446.12s(cpu) 
 Thu Jun 24 08:25:43 2021

        *************************************************************
        *                                                           *
        *  Thank you very much for using Q-Chem.  Have a nice day.  *
        *                                                           *
        *************************************************************


