Q-Chem Developer Version!
                  Welcome to Q-Chem
     A Quantum Leap Into The Future Of Chemistry


 Q-Chem 5.1, Q-Chem, Inc., Pleasanton, CA (2018)

 Yihan Shao,  Zhengting Gan,  E. Epifanovsky,  A. T. B. Gilbert,  M. Wormit,  
 J. Kussmann,  A. W. Lange,  A. Behn,  Jia Deng,  Xintian Feng,  D. Ghosh,  
 M. Goldey,  P. R. Horn,  L. D. Jacobson,  I. Kaliman,  T. Kus,  A. Landau,  
 Jie Liu,  E. I. Proynov,  R. M. Richard,  R. P. Steele,  E. J. Sundstrom,  
 H. L. Woodcock III,  P. M. Zimmerman,  D. Zuev,  B. Albrecht,  E. Alguire,  
 S. A. Baeppler,  D. Barton,  Z. Benda,  Y. A. Bernard,  E. J. Berquist,  
 K. B. Bravaya,  H. Burton,  D. Casanova,  Chun-Min Chang,  Yunqing Chen,  
 A. Chien,  K. D. Closser,  M. P. Coons,  S. Coriani,  S. Dasgupta,  
 A. L. Dempwolff,  M. Diedenhofen,  Hainam Do,  R. G. Edgar,  Po-Tung Fang,  
 S. Faraji,  S. Fatehi,  Qingguo Feng,  K. D. Fenk,  J. Fosso-Tande,  
 Qinghui Ge,  A. Ghysels,  G. Gidofalvi,  J. Gomes,  J. Gonthier,  A. Gunina,  
 D. Hait,  M. W. D. Hanson-Heine,  P. H. P. Harbach,  A. W. Hauser,  
 J. E. Herr,  E. G. Hohenstein,  Z. C. Holden,  Kerwin Hui,  B. C. Huynh,  
 T.-C. Jagau,  Hyunjun Ji,  B. Kaduk,  K. Khistyaev,  Jaehoon Kim,  
 P. Klunzinger,  K. Koh,  D. Kosenkov,  L. Koulias,  T. Kowalczyk,  
 C. M. Krauter,  A. Kunitsa,  Ka Un Lao,  A. Laurent,  K. V. Lawler,  
 Joonho Lee,  D. Lefrancois,  S. Lehtola,  D. S. Levine,  Yi-Pei Li,  
 You-Sheng Lin,  Fenglai Liu,  E. Livshits,  A. Luenser,  P. Manohar,  
 E. Mansoor,  S. F. Manzer,  Shan-Ping Mao,  Yuezhi Mao,  N. Mardirossian,  
 A. V. Marenich,  T. Markovich,  L. A. Martinez-Martinez,  S. A. Maurer,  
 N. J. Mayhall,  S. C. McKenzie,  J.-M. Mewes,  A. F. Morrison,  
 J. W. Mullinax,  K. Nanda,  T. S. Nguyen-Beck,  R. Olivares-Amaya,  
 J. A. Parkhill,  T. M. Perrine,  F. Plasser,  P. Pokhilko,  S. Prager,  
 A. Prociuk,  E. Ramos,  D. R. Rehn,  F. Rob,  M. Schneider,  N. Sergueev,  
 S. M. Sharada,  S. Sharma,  D. W. Small,  T. Stauch,  T. Stein,  
 Yu-Chuan Su,  A. J. W. Thom,  A. Tkatchenko,  T. Tsuchimochi,  N. M. Tubman,  
 L. Vogt,  M. L. Vidal,  O. Vydrov,  M. A. Watson,  J. Wenzel,  
 M. de Wergifosse,  T. A. Wesolowski,  A. White,  J. Witte,  A. Yamada,  
 Jun Yang,  K. Yao,  S. Yeganeh,  S. R. Yost,  Zhi-Qiang You,  A. Zech,  
 Igor Ying Zhang,  Xing Zhang,  Yan Zhao,  Ying Zhu,  B. R. Brooks,  
 G. K. L. Chan,  C. J. Cramer,  M. S. Gordon,  W. J. Hehre,  A. Klamt,  
 M. W. Schmidt,  C. D. Sherrill,  D. G. Truhlar,  A. Aspuru-Guzik,  R. Baer,  
 A. T. Bell,  N. A. Besley,  Jeng-Da Chai,  A. E. DePrince, III,  
 R. A. DiStasio Jr.,  A. Dreuw,  B. D. Dunietz,  T. R. Furlani,  
 Chao-Ping Hsu,  Yousung Jung,  Jing Kong,  D. S. Lambrecht,  WanZhen Liang,  
 C. Ochsenfeld,  V. A. Rassolov,  L. V. Slipchenko,  J. E. Subotnik,  
 T. Van Voorhis,  J. M. Herbert,  A. I. Krylov,  P. M. W. Gill,  M. Head-Gordon

 Contributors to earlier versions of Q-Chem not listed above: 
 R. D. Adamson,  B. Austin,  J. Baker,  G. J. O. Beran,  K. Brandhorst,  
 S. T. Brown,  E. F. C. Byrd,  A. K. Chakraborty,  C.-L. Cheng,  
 Siu Hung Chien,  D. M. Chipman,  D. L. Crittenden,  H. Dachsel,  
 R. J. Doerksen,  A. D. Dutoi,  L. Fusti-Molnar,  W. A. Goddard III,  
 A. Golubeva-Zadorozhnaya,  S. R. Gwaltney,  G. Hawkins,  A. Heyden,  
 S. Hirata,  G. Kedziora,  F. J. Keil,  C. Kelley,  Jihan Kim,  R. A. King,  
 R. Z. Khaliullin,  P. P. Korambath,  W. Kurlancheek,  A. M. Lee,  M. S. Lee,  
 S. V. Levchenko,  Ching Yeh Lin,  D. Liotard,  R. C. Lochan,  I. Lotan,  
 P. E. Maslen,  N. Nair,  D. P. O'Neill,  D. Neuhauser,  E. Neuscamman,  
 C. M. Oana,  R. Olson,  B. Peters,  R. Peverati,  P. A. Pieniazek,  
 Y. M. Rhee,  J. Ritchie,  M. A. Rohrdanz,  E. Rosta,  N. J. Russ,  
 H. F. Schaefer III,  N. E. Schultz,  N. Shenvi,  A. C. Simmonett,  A. Sodt,  
 D. Stuck,  K. S. Thanthiriwatte,  V. Vanovschi,  Tao Wang,  A. Warshel,  
 C. F. Williams,  Q. Wu,  X. Xu,  W. Zhang

 Please cite Q-Chem as follows:
 Y. Shao et al., Mol. Phys. 113, 184-215 (2015)
 DOI: 10.1080/00268976.2014.952696

 Q-Chem 5.1.1 for Intel X86 EM64T Linux

 Parts of Q-Chem use Armadillo 8.300.2 (Tropical Shenanigans).
 http://arma.sourceforge.net/

 Q-Chem begins on Wed Jun 30 12:34:35 2021  

Host: n0101.mhg0
0

     Scratch files written to /global/scratch/lbettins/qchem13729//
Input Ideriv = 2
Curr. Ideriv = -1
Max.  Ideriv = 2

Checking the input file for inconsistencies... 	...done.

--------------------------------------------------------------
User input:
--------------------------------------------------------------
$rem
   JOBTYPE  freq
   EXCHANGE   wb97x-d
   BASIS   def2-svp
   UNRESTRICTED   False
   max_scf_cycles   250
   geom_opt_max_cycles   1
   SYM_IGNORE  TRUE
   print_input   true
   geom_opt_dmax   80
   pop_mulliken false
   XC_GRID 000075000302
$end

$molecule
0 1
C       17.9409882026     5.3822115945     9.3343186859
H       16.9441889941     3.4655026823     9.2385956153
C       16.8531919915     4.4669420640     8.7860234037
H       16.9967647046     4.3285839552     7.7017954135
H       15.2706810200     5.1107400540     10.1204489807
C       15.4449941153     5.0011804039     9.0355181505
H       14.6699032473     4.3256290948     8.6437554392
H       15.3164382548     5.9769818836     8.5325037893
H       17.8276106195     5.5262066016     10.4212124278
H       17.8993411151     6.3736934641     8.8562040970
H       18.9414687883     4.9620807996     9.1616342066
$end
--------------------------------------------------------------
 ----------------------------------------------------------------
             Standard Nuclear Orientation (Angstroms)
    I     Atom           X                Y                Z
 ----------------------------------------------------------------
    1      C      17.9409882026     5.3822115945     9.3343186859
    2      H      16.9441889941     3.4655026823     9.2385956153
    3      C      16.8531919915     4.4669420640     8.7860234037
    4      H      16.9967647046     4.3285839552     7.7017954135
    5      H      15.2706810200     5.1107400540    10.1204489807
    6      C      15.4449941153     5.0011804039     9.0355181505
    7      H      14.6699032473     4.3256290948     8.6437554392
    8      H      15.3164382548     5.9769818836     8.5325037893
    9      H      17.8276106195     5.5262066016    10.4212124278
   10      H      17.8993411151     6.3736934641     8.8562040970
   11      H      18.9414687883     4.9620807996     9.1616342066
 ----------------------------------------------------------------
 Nuclear Repulsion Energy =    82.3564822806 hartrees
 There are       13 alpha and       13 beta electrons
 Requested basis set is def2-SVP
 There are 42 shells and 82 basis functions

 Total QAlloc Memory Limit   2000 MB
 Mega-Array Size       188 MB
 MEM_STATIC part       192 MB

                       Distance Matrix (Angstroms)
             C (  1)   H (  2)   C (  3)   H (  4)   H (  5)   C (  6)
   H (  2)  2.162532
   C (  3)  1.523695  1.102716
   H (  4)  2.160283  1.763357  1.102409
   H (  5)  2.796826  2.507010  2.167835  3.072624
   C (  6)  2.542529  2.155721  1.526656  2.153879  1.104293
   H (  7)  3.506172  2.503204  2.192478  2.510295  1.777064  1.100279
   H (  8)  2.808010  3.075007  2.169356  2.496155  1.809430  1.105323
   H (  9)  1.102237  2.534860  2.178388  3.085423  2.607865  2.805827
   H ( 10)  1.101528  3.084820  2.176018  2.515905  3.178556  2.817759
   H ( 11)  1.098768  2.496957  2.178795  2.512831  3.796855  3.498967
             H (  7)   H (  8)   H (  9)   H ( 10)
   H (  8)  1.776893
   H (  9)  3.817310  3.174335
   H ( 10)  3.830009  2.633163  1.781188
   H ( 11)  4.349660  3.816631  1.773543  1.781002
 
 A cutoff of  1.0D-11 yielded    899 shell pairs
 There are      3459 function pairs (      3726 Cartesian)
 
 -------------------------------------------------------
 OpenMP Integral Computing Module                       
 Release: version 1.0, May 2013, Q-Chem Inc. Pittsburgh 
 -------------------------------------------------------
 Integral Job Info:
 Integral job number is                      11
 Integral operator is                         1
 short-range coefficients              22203600
 long-range coefficients              100000000
 Omega coefficients                         200
 if combine SR and LR in K                    1
 Integral screening is                        0
 Integral computing path is                   2
 max size of driver memory is            800000
 size of driver memory is                593474
 size of scratch memory is              1848772
 max col of scratch BK array               1296
 max len of scratch array in speh3          155
 max len of scratch index in speh4           18
 max int batch size is                      520
 min int batch size is                       52
 fixed nKL is                                52
 max L of basis functions is                  2
 order of int derivative is                   0
 number of shells is                         42
 number of basis is                          85
 number of cartesian basis is                85
 number of contracted shell pairs           899
 number of primitive shell pairs           2499
 maxK2 (contraction) of shell pair           25
 max number of K2 of shell pair               1
 max number of CS2 of shell pair            164
 max number of PS2 of shell pair            348
 mem total for path MDJ                  512034
 -------------------------------------------------------
 Smallest overlap matrix eigenvalue = 2.98E-03
 Guess from superposition of atomic densities
 Warning:  Energy on first SCF cycle will be non-variational
 SAD guess density has 26.000000 electrons

 -----------------------------------------------------------------------
  General SCF calculation program by
  Eric Jon Sundstrom, Paul Horn, Yuezhi Mao, Dmitri Zuev, Alec White,
  David Stuck, Shaama M.S., Shane Yost, Joonho Lee, David Small,
  Daniel Levine, Susi Lehtola, Hugh Burton, Evgeny Epifanovsky
 -----------------------------------------------------------------------
 Exchange:     0.2220 Hartree-Fock + 1.0000 wB97X-D + LR-HF
 Correlation:  1.0000 wB97X-D
 Using Euler-Maclaurin-Lebedev (75,302) quadrature formula
 Dispersion:   Grimme D
 using 32 threads for integral computing
 -------------------------------------------------------
 OpenMP Integral computing Module                
 Release: version 1.0, May 2013, Q-Chem Inc. Pittsburgh 
 -------------------------------------------------------
 using 32 threads for integral computing
 -------------------------------------------------------
 OpenMP Integral computing Module                
 Release: version 1.0, May 2013, Q-Chem Inc. Pittsburgh 
 -------------------------------------------------------
 -------------------------------------------------------
 OpenMP BLAS3 based DFT computing Module                
 Release: version 1.0, May 2013, Q-Chem Inc. Pittsburgh 
 -------------------------------------------------------
 A restricted SCF calculation will be
 performed using DIIS
 SCF converges when DIIS error is below 1.0e-08
 ---------------------------------------
  Cycle       Energy         DIIS error
 ---------------------------------------
    1    -119.5329190612      7.19e-02  
    2    -118.9780446014      6.73e-03  
    3    -118.9981178788      5.07e-03  
    4    -119.0205175175      2.54e-04  
    5    -119.0205831722      1.08e-04  
    6    -119.0205927765      2.67e-05  
    7    -119.0205933993      3.80e-06  
    8    -119.0205934203      6.25e-07  
    9    -119.0205934209      1.01e-07  
   10    -119.0205934210      3.89e-08  
   11    -119.0205934210      1.13e-08  
   12    -119.0205934210      1.05e-09  Convergence criterion met
 ---------------------------------------
 SCF time:   CPU 137.67s  wall 4.00s 
 SCF   energy in the final basis set =     -119.0205934210
 Total energy in the final basis set =     -119.0205934210
 
 --------------------------------------------------------------
 
                    Orbital Energies (a.u.)
 --------------------------------------------------------------
 
 Alpha MOs
 -- Occupied --
-10.290 -10.285 -10.285  -0.871  -0.767  -0.667  -0.543  -0.521
 -0.479  -0.463  -0.419  -0.414  -0.405
 -- Virtual --
  0.140   0.188   0.189   0.190   0.218   0.239   0.243   0.250
  0.294   0.335   0.482   0.510   0.515   0.535   0.542   0.706
  0.712   0.718   0.729   0.730   0.773   0.774   0.788   0.788
  0.792   0.800   0.807   0.845   1.071   1.098   1.193   1.227
  1.376   1.447   1.462   1.623   1.629   1.661   1.815   1.832
  1.850   1.874   1.887   1.900   1.912   1.939   1.943   1.954
  1.960   2.053   2.094   2.189   2.316   2.322   2.433   2.473
  2.487   2.558   2.651   2.669   2.693   2.755   2.931   2.953
  3.000   3.025   3.099   3.133   3.163
 --------------------------------------------------------------
 
 -----------------------------------------------------------------
                    Cartesian Multipole Moments
 -----------------------------------------------------------------
    Charge (ESU x 10^10)
                 0.0000
    Dipole Moment (Debye)
         X       0.0165      Y      -0.0570      Z      -0.0300
       Tot       0.0665
    Quadrupole Moments (Debye-Ang)
        XX     -21.4177     XY      -0.8562     YY     -22.1957
        XZ      -0.3517     YZ      -0.9106     ZZ     -21.8799
    Octopole Moments (Debye-Ang^2)
       XXX   -1088.8368    XXY    -123.0167    XYY    -371.2948
       YYY    -326.5495    XXZ    -203.0379    XYZ     -14.4762
       YYZ    -204.7269    XZZ    -365.2025    YZZ    -117.7527
       ZZZ    -587.0126
    Hexadecapole Moments (Debye-Ang^3)
      XXXX  -36782.4843   XXXY   -5731.8446   XXYY   -6808.7536
      XYYY   -5477.3022   YYYY   -3294.6307   XXXZ  -10043.2889
      XXYZ   -1234.0737   XYYZ   -3428.3017   YYYZ   -2995.2355
      XXZZ   -7951.5686   XYZZ   -1970.0598   YYZZ   -2433.3980
      XZZZ   -9830.7971   YZZZ   -3022.7750   ZZZZ  -10636.0318
 -----------------------------------------------------------------
 Calculating MO derivatives via CPSCF
 D1JvT checksum  = 184536 6682.9504095224
 D1KAT checksum  = 358248 802.4845575731
 D1JvT checksum  = 184536 3798.3434081078
 D1KAT checksum  = 358248 338.4846081015
   1         3          33      0.181719    0.025448
   2         3          33      0.021442    0.003261
   3         3          33      0.002017    0.000294
   4         3          33      0.000168    0.000027
   5        33           3      0.000005    0.000002
   6        36           0      0.000000    0.000000    Roots Converged
 Time for AOints: 12.9 s (CPU) 0.5 s (wall)
 ------------------------------------------------------------------------------
                     AOints        : Timing summary (seconds)
 ------------------------------------------------------------------------------
     job step          cpu (% of tot)      sys (% of tot)     wall (% of tot)
 ------------------------------------------------------------------------------
  cpscf_lag         0.2777E+03 (40.9)   0.5910E-03 (47.1)   0.1028E+02 (31.9)
  iterzp            0.3856E+03 (56.8)   0.6030E-03 (48.1)   0.2136E+02 (66.4)
  make_fx           0.0000E+00 ( 0.0)   0.0000E+00 ( 0.0)   0.0000E+00 ( 0.0)
  AOints            0.1301E+02 ( 1.9)   0.4300E-04 ( 3.4)   0.4713E+00 ( 1.5)
 ------------------------------------------------------------------------------
   Grand Totals     0.6788E+03          0.1254E-02          0.3220E+02
 ------------------------------------------------------------------------------
 Calculating analytic Hessian of the SCF energy
 Polarizability Matrix (a.u.)
            1           2           3
    1 -37.6291442  -0.6007202  -0.5402313
    2  -0.6007202 -33.7823538  -0.3835753
    3  -0.5402313  -0.3835753 -33.3674518
atom: 0 element: 6
atom: 1 element: 1
atom: 2 element: 6
atom: 3 element: 1
atom: 4 element: 1
atom: 5 element: 6
atom: 6 element: 1
atom: 7 element: 1
atom: 8 element: 1
atom: 9 element: 1
atom: 10 element: 1
 
 Direct stationary perturbation theory relativistic correction:
 
 rels  =       0.026225968610
 relv  =      -0.113974220659
 rel2e =       0.000000000000
 E_rel =      -0.087748252049
 
 Hessian of the SCF Energy
            1           2           3           4           5           6
    1   0.5476247  -0.0424618  -0.0232105   0.0010463   0.0015315   0.0007600
    2  -0.0424618   0.5496580  -0.0203698  -0.0227112  -0.0167098  -0.0127929
    3  -0.0232105  -0.0203698   0.5670291   0.0108541   0.0083124   0.0054313
    4   0.0010463  -0.0227112   0.0108541   0.0575878  -0.0201444   0.0104898
    5   0.0015315  -0.0167098   0.0083124  -0.0201444   0.2844497  -0.1079664
    6   0.0007600  -0.0127929   0.0054313   0.0104898  -0.1079664   0.0993504
    7  -0.1472726  -0.0605767  -0.0362004  -0.0483565   0.0188984  -0.0086737
    8  -0.0579735  -0.1340754  -0.0305296   0.0186297  -0.2634141   0.1018439
    9  -0.0345470  -0.0307862  -0.1006363  -0.0084173   0.1004153  -0.0982392
   10   0.0023864  -0.0029108  -0.0250882  -0.0003790  -0.0004572  -0.0029495
   11   0.0023864  -0.0028072  -0.0206887  -0.0040828   0.0041563   0.0281156
   12   0.0015185  -0.0006029  -0.0099741   0.0016722  -0.0021724  -0.0117926
   13   0.0017721   0.0002485   0.0014359   0.0011012  -0.0001560  -0.0004272
   14  -0.0007345   0.0001557   0.0007314  -0.0004406   0.0000354  -0.0004882
   15  -0.0006977   0.0002359   0.0010158   0.0002608  -0.0003298   0.0006077
   16  -0.0295300   0.0074673   0.0030662  -0.0040381   0.0007658   0.0009547
   17  -0.0204983   0.0089474   0.0041824   0.0288705  -0.0093146  -0.0064122
   18  -0.0124580   0.0051795   0.0023213  -0.0139884   0.0047011   0.0025471
   19  -0.0051472   0.0041222   0.0020673   0.0008438   0.0001985  -0.0004956
   20   0.0020891  -0.0004818  -0.0004871  -0.0004436   0.0007308   0.0003378
   21   0.0009335  -0.0004313   0.0002585  -0.0005233  -0.0000269   0.0000238
   22   0.0017710   0.0011766  -0.0004558  -0.0058664   0.0022945   0.0011224
   23  -0.0008744   0.0011476  -0.0004517   0.0026032   0.0003321  -0.0009470
   24  -0.0001619   0.0001305  -0.0000871   0.0014548  -0.0007361   0.0010032
   25  -0.0508136   0.0043240   0.0315600   0.0007519   0.0004700   0.0006369
   26   0.0041855  -0.0513973  -0.0308233   0.0007621   0.0003182  -0.0001174
   27   0.0308561  -0.0312934  -0.3092640  -0.0001320  -0.0002953   0.0006874
   28  -0.0478859   0.0126218  -0.0056335  -0.0032365  -0.0031726  -0.0019236
   29   0.0120599  -0.2641593   0.1081611  -0.0033301  -0.0013604  -0.0021485
   30  -0.0053291   0.1087733  -0.1014138  -0.0022966  -0.0019713   0.0000874
   31  -0.2739513   0.0987001   0.0416048   0.0005455  -0.0002284   0.0005058
   32   0.1002902  -0.0902779  -0.0180370   0.0002872   0.0007764   0.0005753
   33   0.0423363  -0.0180427  -0.0546809   0.0006260   0.0000695   0.0002934
            7           8           9          10          11          12
    1  -0.1472726  -0.0579735  -0.0345470   0.0023864   0.0023864   0.0015185
    2  -0.0605767  -0.1340754  -0.0307862  -0.0029108  -0.0028072  -0.0006029
    3  -0.0362004  -0.0305296  -0.1006363  -0.0250882  -0.0206887  -0.0099741
    4  -0.0483565   0.0186297  -0.0084173  -0.0003790  -0.0040828   0.0016722
    5   0.0188984  -0.2634141   0.1004153  -0.0004572   0.0041563  -0.0021724
    6  -0.0086737   0.1018439  -0.0982392  -0.0029495   0.0281156  -0.0117926
    7   0.4786279  -0.0062528  -0.0085246  -0.0509586   0.0037579   0.0339042
    8  -0.0062528   0.5658096  -0.0238973   0.0039136  -0.0528855  -0.0286710
    9  -0.0085246  -0.0238973   0.5950999   0.0335172  -0.0269876  -0.3061684
   10  -0.0509586   0.0039136   0.0335172   0.0603302  -0.0035095  -0.0363963
   11   0.0037579  -0.0528855  -0.0269876  -0.0035095   0.0537439   0.0338016
   12   0.0339042  -0.0286710  -0.3061684  -0.0363963   0.0338016   0.3275955
   13  -0.0054488   0.0030576   0.0313058  -0.0058683   0.0024020   0.0009842
   14   0.0020168  -0.0018221  -0.0129943   0.0027511  -0.0000904  -0.0004350
   15   0.0001094  -0.0007187  -0.0048570   0.0010500  -0.0007430   0.0013930
   16  -0.1910450   0.0438116   0.0205743  -0.0055120   0.0019812   0.0001060
   17   0.0466262  -0.1000295  -0.0093254   0.0034273  -0.0016771   0.0000241
   18   0.0223232  -0.0092686  -0.0858612   0.0315973  -0.0120937  -0.0036864
   19  -0.0169307  -0.0201694  -0.0115106   0.0007691  -0.0003387   0.0004568
   20   0.0104200   0.0089301   0.0061798  -0.0007005   0.0003502   0.0001477
   21   0.0052146   0.0052578   0.0012602  -0.0000864   0.0005451   0.0003718
   22  -0.0039697   0.0282638  -0.0145269   0.0011403  -0.0004261   0.0001014
   23   0.0008121  -0.0109235   0.0049599  -0.0000379   0.0001169  -0.0003613
   24   0.0011651  -0.0064792   0.0029185  -0.0004854  -0.0005533   0.0005896
   25   0.0023933  -0.0021769  -0.0245121  -0.0032845  -0.0032153  -0.0019826
   26   0.0027904  -0.0027295  -0.0211053  -0.0035158  -0.0019587  -0.0015718
   27   0.0019015  -0.0009543  -0.0106174  -0.0018677  -0.0018384   0.0006926
   28   0.0008251  -0.0217038   0.0115721   0.0008032   0.0007902   0.0000710
   29   0.0017098  -0.0177246   0.0087848   0.0003358   0.0004170  -0.0003206
   30   0.0004378  -0.0127552   0.0058697   0.0007192  -0.0001853   0.0007204
   31  -0.0178645   0.0106001   0.0050690   0.0005732   0.0002549  -0.0004353
   32  -0.0202020   0.0088645   0.0047564   0.0007042   0.0006345   0.0001615
   33  -0.0116571   0.0061721   0.0012311  -0.0000103   0.0006277   0.0002585
           13          14          15          16          17          18
    1   0.0017721  -0.0007345  -0.0006977  -0.0295300  -0.0204983  -0.0124580
    2   0.0002485   0.0001557   0.0002359   0.0074673   0.0089474   0.0051795
    3   0.0014359   0.0007314   0.0010158   0.0030662   0.0041824   0.0023213
    4   0.0011012  -0.0004406   0.0002608  -0.0040381   0.0288705  -0.0139884
    5  -0.0001560   0.0000354  -0.0003298   0.0007658  -0.0093146   0.0047011
    6  -0.0004272  -0.0004882   0.0006077   0.0009547  -0.0064122   0.0025471
    7  -0.0054488   0.0020168   0.0001094  -0.1910450   0.0466262   0.0223232
    8   0.0030576  -0.0018221  -0.0007187   0.0438116  -0.1000295  -0.0092686
    9   0.0313058  -0.0129943  -0.0048570   0.0205743  -0.0093254  -0.0858612
   10  -0.0058683   0.0027511   0.0010500  -0.0055120   0.0034273   0.0315973
   11   0.0024020  -0.0000904  -0.0007430   0.0019812  -0.0016771  -0.0120937
   12   0.0009842  -0.0004350   0.0013930   0.0001060   0.0000241  -0.0036864
   13   0.0578275  -0.0063489  -0.0433053  -0.0520738   0.0028596   0.0366323
   14  -0.0063489   0.0490705   0.0291731   0.0028875  -0.0511267  -0.0238215
   15  -0.0433053   0.0291731   0.3263742   0.0378399  -0.0244454  -0.3062358
   16  -0.0520738   0.0028875   0.0378399   0.5097997   0.0405249   0.0198929
   17   0.0028596  -0.0511267  -0.0244454   0.0405249   0.5617902  -0.0079385
   18   0.0366323  -0.0238215  -0.3062358   0.0198929  -0.0079385   0.5798457
   19   0.0037787   0.0044616   0.0024657  -0.1789721  -0.1185863  -0.0686647
   20  -0.0010180  -0.0018724   0.0001788  -0.1201668  -0.1547286  -0.0622042
   21  -0.0216530  -0.0193516  -0.0090423  -0.0694492  -0.0620985  -0.0836634
   22  -0.0010901  -0.0045944   0.0016086  -0.0496477   0.0221867  -0.0122630
   23  -0.0008237   0.0054974  -0.0037169   0.0231337  -0.2527828   0.1067692
   24  -0.0036787   0.0269534  -0.0096224  -0.0128901   0.1074677  -0.1056359
   25  -0.0003493  -0.0000017   0.0006751   0.0017039   0.0001492  -0.0013818
   26  -0.0003083   0.0003318   0.0003598   0.0010429   0.0004111   0.0004819
   27  -0.0008785   0.0001427   0.0001430   0.0007627   0.0004045   0.0008250
   28  -0.0000213   0.0000579   0.0000041   0.0015874  -0.0010330   0.0009233
   29  -0.0000382  -0.0000008  -0.0000321   0.0010688   0.0010357  -0.0000221
   30  -0.0000995   0.0001088  -0.0000785   0.0005506  -0.0000292   0.0001653
   31   0.0003723  -0.0000547  -0.0000105  -0.0022722  -0.0045267  -0.0026130
   32   0.0001254  -0.0001784   0.0000382  -0.0025169  -0.0025251  -0.0017832
   33  -0.0003159  -0.0000187   0.0003023  -0.0014081  -0.0018296  -0.0006217
           19          20          21          22          23          24
    1  -0.0051472   0.0020891   0.0009335   0.0017710  -0.0008744  -0.0001619
    2   0.0041222  -0.0004818  -0.0004313   0.0011766   0.0011476   0.0001305
    3   0.0020673  -0.0004871   0.0002585  -0.0004558  -0.0004517  -0.0000871
    4   0.0008438  -0.0004436  -0.0005233  -0.0058664   0.0026032   0.0014548
    5   0.0001985   0.0007308  -0.0000269   0.0022945   0.0003321  -0.0007361
    6  -0.0004956   0.0003378   0.0000238   0.0011224  -0.0009470   0.0010032
    7  -0.0169307   0.0104200   0.0052146  -0.0039697   0.0008121   0.0011651
    8  -0.0201694   0.0089301   0.0052578   0.0282638  -0.0109235  -0.0064792
    9  -0.0115106   0.0061798   0.0012602  -0.0145269   0.0049599   0.0029185
   10   0.0007691  -0.0007005  -0.0000864   0.0011403  -0.0000379  -0.0004854
   11  -0.0003387   0.0003502   0.0005451  -0.0004261   0.0001169  -0.0005533
   12   0.0004568   0.0001477   0.0003718   0.0001014  -0.0003613   0.0005896
   13   0.0037787  -0.0010180  -0.0216530  -0.0010901  -0.0008237  -0.0036787
   14   0.0044616  -0.0018724  -0.0193516  -0.0045944   0.0054974   0.0269534
   15   0.0024657   0.0001788  -0.0090423   0.0016086  -0.0037169  -0.0096224
   16  -0.1789721  -0.1201668  -0.0694492  -0.0496477   0.0231337  -0.0128901
   17  -0.1185863  -0.1547286  -0.0620985   0.0221867  -0.2527828   0.1074677
   18  -0.0686647  -0.0622042  -0.0836634  -0.0122630   0.1067692  -0.1056359
   19   0.1937731   0.1276515   0.0741810   0.0028165   0.0035909   0.0020520
   20   0.1276515   0.1617915   0.0672360  -0.0187132  -0.0153702  -0.0113223
   21   0.0741810   0.0672360   0.0846144   0.0109991   0.0090021   0.0053389
   22   0.0028165  -0.0187132   0.0109991   0.0548616  -0.0290217   0.0128972
   23   0.0035909  -0.0153702   0.0090021  -0.0290217   0.2714004  -0.1153962
   24   0.0020520  -0.0113223   0.0053389   0.0128972  -0.1153962   0.1055392
   25   0.0002588   0.0000252   0.0003039  -0.0000343   0.0000457   0.0000586
   26   0.0001737  -0.0001507   0.0001185  -0.0001041  -0.0000154   0.0001179
   27  -0.0000134   0.0000358   0.0003748   0.0000127  -0.0000137  -0.0000548
   28   0.0002501   0.0002972  -0.0001483  -0.0003147   0.0005871  -0.0003757
   29   0.0000711   0.0002668  -0.0002305  -0.0008600   0.0004248   0.0000636
   30   0.0001656  -0.0001423  -0.0000626   0.0002081   0.0003386   0.0000457
   31  -0.0014400   0.0005590   0.0002281   0.0003338  -0.0000149  -0.0000359
   32  -0.0011750   0.0005343  -0.0000208  -0.0002021   0.0001725  -0.0002460
   33  -0.0007040   0.0000399   0.0005261   0.0002962  -0.0001830  -0.0000349
           25          26          27          28          29          30
    1  -0.0508136   0.0041855   0.0308561  -0.0478859   0.0120599  -0.0053291
    2   0.0043240  -0.0513973  -0.0312934   0.0126218  -0.2641593   0.1087733
    3   0.0315600  -0.0308233  -0.3092640  -0.0056335   0.1081611  -0.1014138
    4   0.0007519   0.0007621  -0.0001320  -0.0032365  -0.0033301  -0.0022966
    5   0.0004700   0.0003182  -0.0002953  -0.0031726  -0.0013604  -0.0019713
    6   0.0006369  -0.0001174   0.0006874  -0.0019236  -0.0021485   0.0000874
    7   0.0023933   0.0027904   0.0019015   0.0008251   0.0017098   0.0004378
    8  -0.0021769  -0.0027295  -0.0009543  -0.0217038  -0.0177246  -0.0127552
    9  -0.0245121  -0.0211053  -0.0106174   0.0115721   0.0087848   0.0058697
   10  -0.0032845  -0.0035158  -0.0018677   0.0008032   0.0003358   0.0007192
   11  -0.0032153  -0.0019587  -0.0018384   0.0007902   0.0004170  -0.0001853
   12  -0.0019826  -0.0015718   0.0006926   0.0000710  -0.0003206   0.0007204
   13  -0.0003493  -0.0003083  -0.0008785  -0.0000213  -0.0000382  -0.0000995
   14  -0.0000017   0.0003318   0.0001427   0.0000579  -0.0000008   0.0001088
   15   0.0006751   0.0003598   0.0001430   0.0000041  -0.0000321  -0.0000785
   16   0.0017039   0.0010429   0.0007627   0.0015874   0.0010688   0.0005506
   17   0.0001492   0.0004111   0.0004045  -0.0010330   0.0010357  -0.0000292
   18  -0.0013818   0.0004819   0.0008250   0.0009233  -0.0000221   0.0001653
   19   0.0002588   0.0001737  -0.0000134   0.0002501   0.0000711   0.0001656
   20   0.0000252  -0.0001507   0.0000358   0.0002972   0.0002668  -0.0001423
   21   0.0003039   0.0001185   0.0003748  -0.0001483  -0.0002305  -0.0000626
   22  -0.0000343  -0.0001041   0.0000127  -0.0003147  -0.0008600   0.0002081
   23   0.0000457  -0.0000154  -0.0000137   0.0005871   0.0004248   0.0003386
   24   0.0000586   0.0001179  -0.0000548  -0.0003757   0.0000636   0.0000457
   25   0.0522212  -0.0013406  -0.0315002  -0.0009873  -0.0003547  -0.0022669
   26  -0.0013406   0.0520624   0.0369417  -0.0040027   0.0051715   0.0280102
   27  -0.0315002   0.0369417   0.3315382   0.0015846  -0.0033785  -0.0111245
   28  -0.0009873  -0.0040027   0.0015846   0.0485268  -0.0093058   0.0078434
   29  -0.0003547   0.0051715  -0.0033785  -0.0093058   0.2849900  -0.1156610
   30  -0.0022669   0.0280102  -0.0111245   0.0078434  -0.1156610   0.1036970
   31  -0.0018601   0.0003170  -0.0007258   0.0004530  -0.0013565   0.0000673
   32   0.0020751  -0.0020434   0.0002490   0.0248637  -0.0090607  -0.0064865
   33   0.0284091  -0.0124122  -0.0032003  -0.0139176   0.0047837   0.0020938
           31          32          33
    1  -0.2739513   0.1002902   0.0423363
    2   0.0987001  -0.0902779  -0.0180427
    3   0.0416048  -0.0180370  -0.0546809
    4   0.0005455   0.0002872   0.0006260
    5  -0.0002284   0.0007764   0.0000695
    6   0.0005058   0.0005753   0.0002934
    7  -0.0178645  -0.0202020  -0.0116571
    8   0.0106001   0.0088645   0.0061721
    9   0.0050690   0.0047564   0.0012311
   10   0.0005732   0.0007042  -0.0000103
   11   0.0002549   0.0006345   0.0006277
   12  -0.0004353   0.0001615   0.0002585
   13   0.0003723   0.0001254  -0.0003159
   14  -0.0000547  -0.0001784  -0.0000187
   15  -0.0000105   0.0000382   0.0003023
   16  -0.0022722  -0.0025169  -0.0014081
   17  -0.0045267  -0.0025251  -0.0018296
   18  -0.0026130  -0.0017832  -0.0006217
   19  -0.0014400  -0.0011750  -0.0007040
   20   0.0005590   0.0005343   0.0000399
   21   0.0002281  -0.0000208   0.0005261
   22   0.0003338  -0.0002021   0.0002962
   23  -0.0000149   0.0001725  -0.0001830
   24  -0.0000359  -0.0002460  -0.0000349
   25  -0.0018601   0.0020751   0.0284091
   26   0.0003170  -0.0020434  -0.0124122
   27  -0.0007258   0.0002490  -0.0032003
   28   0.0004530   0.0248637  -0.0139176
   29  -0.0013565  -0.0090607   0.0047837
   30   0.0000673  -0.0064865   0.0020938
   31   0.2951102  -0.1042499  -0.0436546
   32  -0.1042499   0.0931032   0.0207932
   33  -0.0436546   0.0207932   0.0538326
 Gradient time:  CPU 838.04 s  wall 45.62 s
 **********************************************************************
 **                                                                  **
 **                       VIBRATIONAL ANALYSIS                       **
 **                       --------------------                       **
 **                                                                  **
 **        VIBRATIONAL FREQUENCIES (CM**-1) AND NORMAL MODES         **
 **     FORCE CONSTANTS (mDYN/ANGSTROM) AND REDUCED MASSES (AMU)     **
 **                  INFRARED INTENSITIES (KM/MOL)                   **
 **                                                                  **
 **********************************************************************
 

 Mode:                 1                      2                      3
 Frequency:       242.09                 317.49                 373.66
 Force Cnst:      0.0360                 0.0665                 0.1675
 Red. Mass:       1.0435                 1.1203                 2.0363
 IR Active:          YES                    YES                    YES
 IR Intens:        0.000                  0.007                  0.117
 Raman Active:       YES                    YES                    YES
               X      Y      Z        X      Y      Z        X      Y      Z
 C          0.003  0.007 -0.013    0.003 -0.024  0.042    0.177 -0.021 -0.008
 H          0.013  0.002 -0.066    0.021  0.001 -0.174   -0.028  0.137  0.070
 C          0.000  0.018 -0.028    0.002  0.045 -0.073   -0.032  0.145  0.085
 H         -0.012  0.059 -0.035   -0.012  0.154 -0.089   -0.026  0.114  0.089
 H         -0.043 -0.285  0.058    0.235  0.408  0.015   -0.373 -0.138 -0.078
 C         -0.004 -0.022  0.037   -0.005 -0.013  0.019   -0.157 -0.073 -0.049
 H          0.006  0.081 -0.160   -0.014 -0.277  0.491    0.092 -0.286 -0.178
 H          0.022  0.100  0.269   -0.243 -0.234 -0.348   -0.349 -0.116 -0.083
 H         -0.302  0.400 -0.097   -0.172  0.040  0.015    0.413 -0.027  0.017
 H          0.339 -0.149 -0.365    0.196 -0.042 -0.012    0.373 -0.005  0.011
 H         -0.022 -0.244  0.441   -0.012 -0.143  0.243    0.036 -0.288 -0.191
 TransDip   0.000  0.000 -0.000    0.000 -0.001  0.002    0.002 -0.009 -0.005

 Mode:                 4                      5                      6
 Frequency:       765.51                 895.02                 924.46
 Force Cnst:      0.3735                 1.1271                 0.5551
 Red. Mass:       1.0818                 2.3880                 1.1025
 IR Active:          YES                    YES                    YES
 IR Intens:        3.798                  1.166                  0.023
 Raman Active:       YES                    YES                    YES
               X      Y      Z        X      Y      Z        X      Y      Z
 C         -0.000 -0.008  0.017   -0.192 -0.077 -0.049   -0.006 -0.025  0.062
 H          0.084 -0.268 -0.464   -0.044  0.157  0.084   -0.332 -0.033 -0.017
 C         -0.002 -0.039  0.068   -0.039  0.155  0.085   -0.002  0.002 -0.007
 H         -0.068  0.536 -0.017   -0.038  0.163  0.087    0.375  0.027  0.041
 H         -0.217  0.186 -0.046    0.013 -0.107 -0.028    0.372 -0.218  0.031
 C         -0.001 -0.006  0.011    0.218 -0.014 -0.001   -0.000  0.024 -0.059
 H         -0.001  0.056 -0.096    0.536 -0.291 -0.140   -0.041 -0.075  0.192
 H          0.224 -0.066 -0.168    0.015 -0.085 -0.079   -0.322  0.106  0.192
 H          0.182  0.269 -0.003    0.026 -0.100 -0.026    0.278  0.307  0.044
 H         -0.174 -0.137 -0.239    0.017 -0.089 -0.083   -0.214 -0.182 -0.252
 H          0.008  0.064 -0.110   -0.369 -0.407 -0.243   -0.012  0.062 -0.186
 TransDip   0.002  0.030 -0.055    0.005 -0.030 -0.017    0.005  0.000  0.000

 Mode:                 7                      8                      9
 Frequency:       935.54                1088.07                1180.24
 Force Cnst:      0.6090                 1.5184                 1.4960
 Red. Mass:       1.1810                 2.1768                 1.8228
 IR Active:          YES                    YES                    YES
 IR Intens:        2.443                  0.286                  1.525
 Raman Active:       YES                    YES                    YES
               X      Y      Z        X      Y      Z        X      Y      Z
 C          0.045 -0.069 -0.028   -0.104 -0.107 -0.064    0.060 -0.106 -0.057
 H         -0.241 -0.034 -0.028    0.546  0.086  0.068   -0.035  0.163  0.073
 C          0.032  0.005  0.003    0.230  0.039  0.030   -0.041  0.165  0.090
 H         -0.171 -0.027 -0.020    0.550  0.090  0.067   -0.032  0.152  0.098
 H         -0.281 -0.080  0.003   -0.189  0.093  0.027    0.368  0.082 -0.024
 C          0.010  0.076  0.035   -0.138  0.066  0.033   -0.005 -0.120 -0.067
 H          0.380 -0.268 -0.111   -0.166  0.089  0.042   -0.336  0.183  0.090
 H         -0.347 -0.014 -0.046   -0.186  0.077  0.056    0.359  0.017  0.100
 H         -0.296 -0.004 -0.072   -0.154 -0.152 -0.069   -0.359 -0.023 -0.109
 H         -0.343 -0.085 -0.032   -0.148 -0.133 -0.102   -0.365 -0.086  0.017
 H          0.261  0.364  0.193   -0.122 -0.138 -0.078    0.235  0.249  0.153
 TransDip  -0.050 -0.006 -0.004    0.017  0.002  0.002   -0.008  0.034  0.019

 Mode:                10                     11                     12
 Frequency:      1213.46                1314.84                1357.62
 Force Cnst:      1.4402                 1.1479                 1.4378
 Red. Mass:       1.6601                 1.1269                 1.3240
 IR Active:          YES                    YES                    YES
 IR Intens:        0.373                  0.001                  1.314
 Raman Active:       YES                    YES                    YES
               X      Y      Z        X      Y      Z        X      Y      Z
 C          0.004  0.057 -0.104    0.003  0.034 -0.062    0.000 -0.053 -0.028
 H          0.039 -0.265 -0.250   -0.623 -0.087 -0.074    0.496  0.068  0.052
 C         -0.006 -0.086  0.156   -0.003  0.001 -0.004   -0.143 -0.021 -0.017
 H         -0.032  0.355  0.095    0.636  0.089  0.071    0.478  0.062  0.055
 H          0.290 -0.244 -0.015   -0.151  0.132  0.025    0.170 -0.172  0.071
 C          0.003  0.056 -0.101   -0.001 -0.037  0.067   -0.023  0.051  0.027
 H         -0.003 -0.117  0.211    0.005  0.056 -0.105    0.261 -0.191 -0.098
 H         -0.293  0.149  0.175    0.149 -0.096 -0.089    0.178 -0.038 -0.176
 H         -0.186 -0.306 -0.068   -0.082 -0.148 -0.047    0.125  0.214 -0.039
 H          0.187  0.220  0.235    0.080  0.121  0.110    0.109  0.077  0.207
 H         -0.014 -0.117  0.210   -0.005 -0.050  0.095    0.169  0.259  0.148
 TransDip  -0.001 -0.010  0.017   -0.001 -0.000  0.000   -0.036 -0.007 -0.005

 Mode:                13                     14                     15
 Frequency:      1411.75                1412.72                1472.76
 Force Cnst:      1.4869                 1.6814                 1.3220
 Red. Mass:       1.2663                 1.4299                 1.0344
 IR Active:          YES                    YES                    YES
 IR Intens:        3.104                  7.624                  0.559
 Raman Active:       YES                    YES                    YES
               X      Y      Z        X      Y      Z        X      Y      Z
 C         -0.096 -0.075 -0.044    0.074  0.020  0.014    0.008  0.003 -0.023
 H         -0.093  0.032  0.060    0.306  0.048  0.041    0.111 -0.137 -0.354
 C          0.030  0.011  0.007   -0.117 -0.017 -0.013   -0.011  0.028  0.011
 H         -0.088  0.071 -0.009    0.293  0.049  0.034    0.031 -0.396  0.060
 H         -0.248  0.162 -0.086   -0.457  0.031 -0.103    0.133  0.411 -0.024
 C          0.061 -0.038 -0.020    0.134 -0.020 -0.008   -0.008 -0.026  0.002
 H         -0.198  0.185  0.095   -0.246  0.300  0.163    0.143 -0.037 -0.249
 H         -0.258  0.024  0.173   -0.461 -0.054  0.065   -0.133  0.104  0.271
 H          0.392  0.250 -0.028   -0.237  0.005 -0.019    0.189  0.151 -0.014
 H          0.392  0.096  0.252   -0.248 -0.004 -0.004   -0.286  0.089  0.189
 H          0.159  0.402  0.212   -0.032 -0.175 -0.087   -0.056 -0.246  0.242
 TransDip   0.015  0.048  0.026   -0.088 -0.001 -0.002    0.006  0.008  0.022

 Mode:                16                     17                     18
 Frequency:      1474.10                1478.21                1492.46
 Force Cnst:      1.3314                 1.3688                 1.4377
 Red. Mass:       1.0399                 1.0632                 1.0955
 IR Active:          YES                    YES                    YES
 IR Intens:        0.814                  1.325                  5.080
 Raman Active:       YES                    YES                    YES
               X      Y      Z        X      Y      Z        X      Y      Z
 C         -0.001  0.009 -0.031    0.009 -0.037 -0.010    0.028 -0.011 -0.004
 H         -0.043  0.097  0.226   -0.095 -0.094 -0.208   -0.078  0.150  0.440
 C          0.024 -0.013 -0.013    0.044  0.025  0.015    0.016 -0.067 -0.039
 H         -0.122  0.216 -0.056   -0.072 -0.219  0.026   -0.052  0.452 -0.106
 H          0.186 -0.220  0.074   -0.078 -0.342  0.032    0.002  0.280 -0.036
 C          0.003  0.009  0.030   -0.002  0.026  0.004   -0.022 -0.013 -0.013
 H         -0.115  0.266 -0.205   -0.123  0.057  0.171    0.146 -0.188 -0.029
 H         -0.180 -0.209 -0.359    0.091 -0.098 -0.252    0.070  0.152  0.283
 H          0.329 -0.007  0.016   -0.190  0.506 -0.100   -0.125  0.321 -0.060
 H         -0.336  0.034  0.070   -0.044  0.190  0.445   -0.138  0.129  0.289
 H         -0.026 -0.238  0.408   -0.095 -0.160 -0.233   -0.081 -0.209 -0.120
 TransDip  -0.018 -0.017  0.015   -0.037 -0.003 -0.004   -0.017  0.058  0.039

 Mode:                19                     20                     21
 Frequency:      1494.35                3020.49                3046.31
 Force Cnst:      1.3667                 5.5814                 5.6749
 Red. Mass:       1.0387                 1.0383                 1.0379
 IR Active:          YES                    YES                    YES
 IR Intens:       13.320                 24.726                 26.758
 Raman Active:       YES                    YES                    YES
               X      Y      Z        X      Y      Z        X      Y      Z
 C         -0.003  0.013 -0.020    0.001  0.001  0.001   -0.028 -0.036 -0.025
 H         -0.013  0.033  0.005    0.003 -0.011  0.004   -0.005  0.029 -0.016
 C         -0.001  0.017 -0.024   -0.002  0.001 -0.000    0.002 -0.002 -0.000
 H          0.024 -0.051 -0.015    0.003 -0.001 -0.003   -0.005  0.001  0.022
 H         -0.380 -0.178 -0.064   -0.090  0.059  0.608   -0.004  0.002  0.018
 C          0.002  0.018 -0.033    0.037 -0.035 -0.013    0.001 -0.001 -0.000
 H         -0.020 -0.273  0.511   -0.266 -0.247 -0.142   -0.010 -0.007 -0.004
 H          0.376  0.135  0.121   -0.071  0.601 -0.312   -0.003  0.016 -0.008
 H          0.294 -0.080  0.029    0.004 -0.002 -0.018   -0.076  0.077  0.642
 H         -0.254 -0.007 -0.029    0.002 -0.015  0.008   -0.028  0.532 -0.267
 H         -0.004 -0.149  0.349   -0.011  0.007  0.003    0.418 -0.185 -0.080
 TransDip   0.000 -0.059  0.101    0.135 -0.079 -0.031   -0.096 -0.113 -0.073

 Mode:                22                     23                     24
 Frequency:      3056.50                3098.56                3120.14
 Force Cnst:      5.8490                 6.2444                 6.3444
 Red. Mass:       1.0626                 1.1039                 1.1061
 IR Active:          YES                    YES                    YES
 IR Intens:       30.515                  0.617                 23.183
 Raman Active:       YES                    YES                    YES
               X      Y      Z        X      Y      Z        X      Y      Z
 C         -0.002  0.006  0.003   -0.002 -0.010  0.019   -0.004 -0.014  0.028
 H         -0.056  0.647 -0.309    0.045 -0.506  0.226    0.029 -0.282  0.127
 C          0.012 -0.061 -0.031    0.003  0.036 -0.068    0.001  0.021 -0.036
 H         -0.088  0.070  0.673   -0.078  0.077  0.584   -0.044  0.039  0.302
 H          0.003  0.001 -0.009    0.057 -0.043 -0.376   -0.089  0.066  0.572
 C          0.003  0.006  0.003   -0.004 -0.024  0.043    0.008  0.042 -0.066
 H         -0.048 -0.049 -0.028    0.025  0.018  0.022   -0.067 -0.054 -0.046
 H          0.003 -0.014  0.009   -0.039  0.317 -0.159    0.066 -0.516  0.260
 H          0.003 -0.005 -0.046    0.018 -0.021 -0.155    0.029 -0.031 -0.232
 H          0.000 -0.039  0.020   -0.008  0.151 -0.072   -0.014  0.214 -0.103
 H          0.032 -0.018 -0.008    0.018 -0.010  0.001    0.031 -0.016  0.001
 TransDip   0.041 -0.153 -0.079   -0.008  0.007 -0.023    0.011  0.083 -0.129

 Mode:                25                     26                     27
 Frequency:      3137.98                3140.41                3156.34
 Force Cnst:      6.4057                 6.3969                 6.4736
 Red. Mass:       1.1041                 1.1009                 1.1029
 IR Active:          YES                    YES                    YES
 IR Intens:       52.082                 31.138                 27.801
 Raman Active:       YES                    YES                    YES
               X      Y      Z        X      Y      Z        X      Y      Z
 C          0.017  0.031 -0.076    0.001  0.010 -0.015   -0.068  0.062  0.012
 H          0.019 -0.225  0.101    0.000 -0.016  0.007    0.005 -0.068  0.030
 C          0.001  0.016 -0.030    0.002 -0.001 -0.012   -0.001  0.007 -0.001
 H         -0.031  0.032  0.247   -0.018  0.016  0.124    0.002 -0.003 -0.019
 H         -0.008  0.008  0.046   -0.062  0.027  0.344    0.002  0.000 -0.005
 C          0.012  0.022 -0.003   -0.046 -0.060 -0.048    0.002  0.003  0.001
 H         -0.151 -0.133 -0.078    0.621  0.548  0.316   -0.025 -0.022 -0.013
 H          0.023 -0.144  0.075   -0.025  0.147 -0.087    0.004 -0.015  0.008
 H         -0.070  0.088  0.641   -0.013  0.018  0.126    0.012 -0.015 -0.201
 H          0.026 -0.526  0.247    0.007 -0.128  0.061    0.009 -0.390  0.198
 H         -0.155  0.072  0.016    0.001  0.000 -0.003    0.788 -0.332 -0.142
 TransDip   0.058  0.121 -0.188   -0.088 -0.087 -0.129   -0.122  0.115  0.018

 STANDARD THERMODYNAMIC QUANTITIES AT   298.15 K  AND     1.00 ATM

   This Molecule has  0 Imaginary Frequencies
   Zero point vibrational energy:       65.219 kcal/mol

   Atom    1 Element C  Has Mass   12.00000
   Atom    2 Element H  Has Mass    1.00783
   Atom    3 Element C  Has Mass   12.00000
   Atom    4 Element H  Has Mass    1.00783
   Atom    5 Element H  Has Mass    1.00783
   Atom    6 Element C  Has Mass   12.00000
   Atom    7 Element H  Has Mass    1.00783
   Atom    8 Element H  Has Mass    1.00783
   Atom    9 Element H  Has Mass    1.00783
   Atom   10 Element H  Has Mass    1.00783
   Atom   11 Element H  Has Mass    1.00783
   Molecular Mass:    44.062640 amu
   Principal axes and moments of inertia in amu*Bohr^2:
                             1           2           3
    Eigenvalues --       61.31231   214.46761   241.38537
          X               0.98151    -0.18897    -0.03058
          Y               0.15048     0.86040    -0.48690
          Z               0.11832     0.47330     0.87292
   Rotational Symmetry Number is   1
   The Molecule is an Asymmetric Top
   Translational Enthalpy:        0.889 kcal/mol
   Rotational Enthalpy:           0.889 kcal/mol
   Vibrational Enthalpy:         66.218 kcal/mol
   gas constant (RT):             0.592 kcal/mol
   Translational Entropy:        37.275  cal/mol.K
   Rotational Entropy:           22.677  cal/mol.K
   Vibrational Entropy:           5.097  cal/mol.K

   Total Enthalpy:               68.588 kcal/mol
   Total Entropy:                65.049  cal/mol.K
Archival summary:
1\1\n0101.mhg0\FREQ\ProcedureUnspecified\BasisUnspecified\38\lbettins\WedJun3012:35:262021WedJun3012:35:262021\0\\#,FREQ,ProcedureUnspecified,BasisUnspecified,\\0,1\C\H,1,1.10241\H,1,1.10272,2,106.196\C,1,1.5237,2,109.653,3,118.587,0\H,4,1.09877,1,111.335,2,-59.6296,0\H,4,1.10153,1,110.947,2,60.7885,0\H,4,1.10224,1,111.093,2,-179.249,0\C,1,1.52666,2,108.952,3,-117.361,0\H,8,1.10028,1,112.132,2,58.4927,0\H,8,1.10429,1,109.931,2,177.927,0\H,8,1.10532,1,109.989,2,-60.8708,0\\\@

 Total job time:  50.96s(wall), 990.20s(cpu) 
 Wed Jun 30 12:35:26 2021

        *************************************************************
        *                                                           *
        *  Thank you very much for using Q-Chem.  Have a nice day.  *
        *                                                           *
        *************************************************************


