
Running Job 1 of 1 PROP1-1-MFI-freq.in
qchem PROP1-1-MFI-freq.in_605.0 /scr/lance/134452/qchem605/ 0
/home/mgcf/software-ws/qchem/qchem_540/exe/qcprog.exe_s PROP1-1-MFI-freq.in_605.0 /scr/lance/134452/qchem605/
                  Welcome to Q-Chem
     A Quantum Leap Into The Future Of Chemistry


 Q-Chem 5.4, Q-Chem, Inc., Pleasanton, CA (2021)

 E. Epifanovsky,  A. T. B. Gilbert,  Xintian Feng,  Joonho Lee,  Yuezhi Mao,  
 N. Mardirossian,  P. Pokhilko,  A. White,  M. Wormit,  M. P. Coons,  
 A. L. Dempwolff,  Zhengting Gan,  D. Hait,  P. R. Horn,  L. D. Jacobson,  
 I. Kaliman,  J. Kussmann,  A. W. Lange,  Ka Un Lao,  D. S. Levine,  Jie Liu,  
 S. C. McKenzie,  A. F. Morrison,  K. Nanda,  F. Plasser,  D. R. Rehn,  
 M. L. Vidal,  Zhi-Qiang You,  Ying Zhu,  B. Alam,  B. Albrecht,  
 A. Aldossary,  E. Alguire,  J. H. Andersen,  D. Barton,  K. Begam,  A. Behn,  
 Y. A. Bernard,  E. J. Berquist,  H. Burton,  A. Carreras,  K. Carter-Fenk,  
 R. Chakraborty,  A. D. Chien,  K. D. Closser,  V. Cofer-Shabica,  
 S. Dasgupta,  Jia Deng,  M. de Wergifosse,  M. Diedenhofen,  Hainam Do,  
 S. Ehlert,  Po-Tung Fang,  S. Fatehi,  Qingguo Feng,  J. Gayvert,  
 Qinghui Ge,  G. Gidofalvi,  M. Goldey,  J. Gomes,  C. Gonzalez-Espinoza,  
 S. Gulania,  A. Gunina,  M. W. D. Hanson-Heine,  P. H. P. Harbach,  
 A. W. Hauser,  M. F. Herbst,  M. Hernandez Vera,  M. Hodecker,  
 Z. C. Holden,  S. Houck,  Xunkun Huang,  Kerwin Hui,  B. C. Huynh,  
 M. Ivanov,  Hyunjun Ji,  Hanjie Jiang,  B. Kaduk,  S. Kaehler,  
 K. Khistyaev,  Jaehoon Kim,  P. Klunzinger,  Z. Koczor-Benda,  
 Joong Hoon Koh,  D. Kosenkov,  L. Koulias,  T. Kowalczyk,  C. M. Krauter,  
 K. Kue,  A. Kunitsa,  T. Kus,  A. Landau,  K. V. Lawler,  D. Lefrancois,  
 S. Lehtola,  Rain Li,  Yi-Pei Li,  Jiashu Liang,  M. Liebenthal,  
 Hung-Hsuan Lin,  You-Sheng Lin,  Fenglai Liu,  Kuan-Yu Liu,  
 M. Loipersberger,  A. Luenser,  A. Manjanath,  P. Manohar,  E. Mansoor,  
 S. F. Manzer,  Shan-Ping Mao,  A. V. Marenich,  T. Markovich,  S. Mason,  
 S. A. Maurer,  P. F. McLaughlin,  M. F. S. J. Menger,  J.-M. Mewes,  
 S. A. Mewes,  P. Morgante,  J. W. Mullinax,  T. S. Nguyen-Beck,  
 K. J. Oosterbaan,  G. Paran,  Alexander C. Paul,  Suranjan K. Paul,  
 F. Pavosevic,  Zheng Pei,  S. Prager,  E. I. Proynov,  E. Ramos,  B. Rana,  
 A. E. Rask,  A. Rettig,  R. M. Richard,  F. Rob,  E. Rossomme,  T. Scheele,  
 M. Scheurer,  M. Schneider,  N. Sergueev,  S. M. Sharada,  W. Skomorowski,  
 D. W. Small,  C. J. Stein,  Yu-Chuan Su,  E. J. Sundstrom,  Zhen Tao,  
 J. Thirman,  T. Tsuchimochi,  N. M. Tubman,  S. P. Veccham,  O. Vydrov,  
 J. Wenzel,  J. Witte,  A. Yamada,  Kun Yao,  S. Yeganeh,  S. R. Yost,  
 A. Zech,  Igor Ying Zhang,  Xing Zhang,  Yu Zhang,  D. Zuev,  
 A. Aspuru-Guzik,  A. T. Bell,  N. A. Besley,  K. B. Bravaya,  B. R. Brooks,  
 D. Casanova,  Jeng-Da Chai,  S. Coriani,  C. J. Cramer,  
 A. E. DePrince, III,  R. A. DiStasio Jr.,  A. Dreuw,  B. D. Dunietz,  
 T. R. Furlani,  W. A. Goddard III,  S. Grimme,  S. Hammes-Schiffer,  
 T. Head-Gordon,  W. J. Hehre,  Chao-Ping Hsu,  T.-C. Jagau,  Yousung Jung,  
 A. Klamt,  Jing Kong,  D. S. Lambrecht,  WanZhen Liang,  N. J. Mayhall,  
 C. W. McCurdy,  J. B. Neaton,  C. Ochsenfeld,  J. A. Parkhill,  R. Peverati,  
 V. A. Rassolov,  Yihan Shao,  L. V. Slipchenko,  T. Stauch,  R. P. Steele,  
 J. E. Subotnik,  A. J. W. Thom,  A. Tkatchenko,  D. G. Truhlar,  
 T. Van Voorhis,  T. A. Wesolowski,  K. B. Whaley,  H. L. Woodcock III,  
 P. M. Zimmerman,  S. Faraji,  P. M. W. Gill,  M. Head-Gordon,  
 J. M. Herbert,  A. I. Krylov

 Contributors to earlier versions of Q-Chem not listed above: 
 R. D. Adamson,  B. Austin,  R. Baer,  J. Baker,  G. J. O. Beran,  
 K. Brandhorst,  S. T. Brown,  E. F. C. Byrd,  A. K. Chakraborty,  
 G. K. L. Chan,  Chun-Min Chang,  Yunqing Chen,  C.-L. Cheng,  
 Siu Hung Chien,  D. M. Chipman,  D. L. Crittenden,  H. Dachsel,  
 R. J. Doerksen,  A. D. Dutoi,  R. G. Edgar,  J. Fosso-Tande,  
 L. Fusti-Molnar,  D. Ghosh,  A. Ghysels,  A. Golubeva-Zadorozhnaya,  
 J. Gonthier,  M. S. Gordon,  S. R. Gwaltney,  G. Hawkins,  J. E. Herr,  
 A. Heyden,  S. Hirata,  E. G. Hohenstein,  G. Kedziora,  F. J. Keil,  
 C. Kelley,  Jihan Kim,  R. A. King,  R. Z. Khaliullin,  P. P. Korambath,  
 W. Kurlancheek,  A. Laurent,  A. M. Lee,  M. S. Lee,  S. V. Levchenko,  
 Ching Yeh Lin,  D. Liotard,  E. Livshits,  R. C. Lochan,  I. Lotan,  
 L. A. Martinez-Martinez,  P. E. Maslen,  N. Nair,  D. P. O'Neill,  
 D. Neuhauser,  E. Neuscamman,  C. M. Oana,  R. Olivares-Amaya,  R. Olson,  
 T. M. Perrine,  B. Peters,  P. A. Pieniazek,  A. Prociuk,  Y. M. Rhee,  
 J. Ritchie,  M. A. Rohrdanz,  E. Rosta,  N. J. Russ,  H. F. Schaefer III,  
 M. W. Schmidt,  N. E. Schultz,  S. Sharma,  N. Shenvi,  C. D. Sherrill,  
 A. C. Simmonett,  A. Sodt,  T. Stein,  D. Stuck,  K. S. Thanthiriwatte,  
 V. Vanovschi,  L. Vogt,  Tao Wang,  A. Warshel,  M. A. Watson,  
 C. F. Williams,  Q. Wu,  X. Xu,  Jun Yang,  W. Zhang,  Yan Zhao

 Please cite Q-Chem as follows:
 Y. Shao et al., Mol. Phys. 113, 184-215 (2015)
 DOI: 10.1080/00268976.2014.952696

 Q-Chem 5.4.0 for Intel X86 EM64T Linux

 Parts of Q-Chem use Armadillo 9.800.1 (Horizon Scraper).
 http://arma.sourceforge.net/

 Q-Chem begins on Thu Jun 24 14:10:37 2021  

 Host: 
0

     Scratch files written to /scr/lance/134452/qchem605//
 May1621 |scratch|qcdevops|jenkins|workspace|build_RNUM -1
 Processing $rem in /home/mgcf/software-ws/qchem/qchem_540/config/preferences:
 Processing $rem in /home/lance/.qchemrc:
Applying user defined connections for MM calculations

 Checking the input file for inconsistencies... 	...done.

--------------------------------------------------------------
User input:
--------------------------------------------------------------
$rem
jobtype		freq
gui     	2
!vibman_print	4
max_scf_cycles  500
geom_opt_max_cycles 999
exchange 	omegab97x-d
basis def2-svp
!basis		6-311+G(3df,3pd)
scf_algorithm 	rca_diis
QM_MM_INTERFACE Zeolite
force_field   	charmm27
user_connect   	true
symmetry  	 off
sym_ignore   	true
print_input   	true
qmmm_print   	false
qm_mm   	true
model_system_mult 1
qmmm_full_hessian 	false
mem_total   10000000
mem_static   10000
pop_mulliken 	false
!nbo	true
isotopes true
$end

$qm_atoms
1
2
3
4
5
6
7
8
9
10
11
12
13
14
15
16
17
18
19
20
21
22
23
24
25
26
27
28
29
30
31
32
33
34
35
36
37
38
39
40
41
42
43
44
45
46
47
48
49
50
51
52
53
54
55
56
57
58
59
60
61
62
$end

$isotopes
1 0
32
63 100000000000000000
64 100000000000000000
65 100000000000000000
66 100000000000000000
67 100000000000000000
68 100000000000000000
69 100000000000000000
70 100000000000000000
71 100000000000000000
72 100000000000000000
73 100000000000000000
74 100000000000000000
75 100000000000000000
76 100000000000000000
77 100000000000000000
78 100000000000000000
79 100000000000000000
80 100000000000000000
81 100000000000000000
82 100000000000000000
83 100000000000000000
84 100000000000000000
85 100000000000000000
86 100000000000000000
87 100000000000000000
88 100000000000000000
89 100000000000000000
90 100000000000000000
91 100000000000000000
92 100000000000000000
93 100000000000000000
94 100000000000000000
$end

$comment
Atom   type   and   names
-1   Oxygen   in   SiO4
-2   Silicon   in   SiO4
-3   H for terminal in SiO4
-23  Si right out of T5 and has one connections to QM
-22  Si right out of T5 and has two connections to QM
-21  Si right out of T5 and has three connections to QM
$end


$force_field_params
NumAtomTypes   3000
AtomType   -1   -0.35   1.77   -0.018
AtomType   -13   -0.35   1.77   -0.018
AtomType   -2   0.7   2.2   -0.047
AtomType   -3   -0.175   0.01   0
AtomType   -4    0.175   0.01   0
AtomType   -23   0.525   2.2   -0.047
AtomType   -22   0.35   2.2   -0.047
AtomType   -21   0.175   2.2   -0.047
AtomType   -111   0   1.34   -0.024
AtomType   -112   0   1.34   -0.035
AtomType   -121   0   2.05   -0.078
AtomType   -122   0   2.01   -0.056
AtomType   -912   0   2.175   -0.055
AtomType   -916   0   1.77   -0.1521
AtomType   -901   0   1.32   -0.022
AtomType   -801   0   0.2245   -0.046
AtomType    -31 0   1.9924  -0.07
AtomType    -32 0   2.09    -0.068
AtomType    -33 0   2.08    -0.064
AtomType    -34 0   1.87    -0.18
AtomType    -35 0   2.00    -0.032
AtomType    -41 0   0.2245  -0.046
AtomType    -42 0   0.87    -0.012
AtomType    -43 0   1.1 -0.046
AtomType    -44 0   1.3582  -0.03
AtomType    -45 0   1.26    -0.026
AtomType    -46 0   1.25    -0.031
AtomType    -47 0   1.34    -0.045
AtomType    -51 0   1.765   -0.1921
AtomType    -61 0   1.98    -0.07
AtomType    -62 0   1.89    -0.06
AtomType    -63 0   1.79    -0.18
Bond   -1   -2   304   1.682
Bond   -1   -3   204   1.489
Bond   -2   -3   100   1.45
Angle   -1   -2   -1   34   150
Angle   -2   -1   -2   30   121.5
Angle   -3   -1   -2   44   118
Angle   -1   -2   -3   30   109.5
Torsion   -2   -1   -2   -1   0.1   120   3
Torsion   -2   -1   -2   -3   0.3   120   3
Bond   -121   -122   222.5   1.528
Bond   -121   -121   222.5   1.528
Bond   -122   -122   222.5   1.528
Bond   -111   -121   309   1.089
Bond   -112   -122   309   1.089
Angle   -121   -122   -122   58   115
Angle   -121   -121   -122   58   115
Angle   -121   -121   -121   58   115
Angle   -122   -122   -122   58   115
Angle   -111   -121   -111   35.5   108.4
Angle   -111   -121   -121   35.5   108.4
Angle   -111   -121   -122   35.5   108.4
Angle   -112   -122   -112   35.5   108.4
Angle   -112   -122   -121   35.5   108.4
Angle   -112   -122   -122   35.5   108.4
Torsion   -111   -121   -122   -122   0.16   120   3
Torsion   -111   -121   -121   -121   0.16   120   3
Torsion   -111   -121   -121   -111   0.16   120   3
Torsion   -111   -121   -122   -112   0.16   120   3
Torsion   -112   -122   -122   -122   95.16   180   2
Torsion   -112   -122   -122   -112   95.16   180   2
Torsion   -121   -122   -122   -122   95.16   180   2
Torsion   -121   -122   -122   -112   95.16   180   2
Torsion   -122   -122   -122   -112   95.16   180   2
Torsion   -112   -122   -122   -121   95.16   180   2
Bond   -13   -1   304   1.682
Bond   -13   -121   222.5   1.55
Angle   -13   -121   -121   40   111
Angle   -13   -121   -1   34   150
Angle   -13   -121   -111   35.5   115
Torsion   -1   -13   -121   -121   0.2   120   3
Torsion   -1   -13   -121   -111   0.2   120   3
Bond   -901   -912   342.991   1.093
Bond   -801   -916   560.905   0.972
Bond   -916   -912   363.214   1.418
Bond   -912   -912   306.432   1.508
Angle   -916   -912   -912   71.39   108.133
Angle   -916   -912   -916   83.192   111.368
Angle   -916   -912   -901   56.205   108.577
Angle   -912   -912   -901   45.77   110.549
Angle   -912   -916   -912   86.143   106.926
Angle   -912   -912   -912   61.243   109.608
Angle   -912   -916   -801   57.069   106.503
Angle   -901   -912   -901   37.134   108.836
Torsion   -912   -916   -912   -912   -0.341   0   1
Torsion   -912   -916   -912   -912   0.378   180   2
Torsion   -912   -916   -912   -912   0.378   0   3
Torsion   -912   -916   -912   -901   0.285   0   1
Torsion   -912   -916   -912   -901   0.16   180   2
Torsion   -912   -916   -912   -901   0.285   0   3
Torsion   -912   -912   -912   -912   0.051   0   1
Torsion   -912   -912   -912   -912   0.341   180   2
Torsion   -912   -912   -912   -912   0.166   0   3
Torsion   -912   -912   -912   -916   -0.344   0   1
Torsion   -912   -912   -912   -916   0.878   180   2
Torsion   -912   -912   -912   -916   0.238   0   3
Torsion   -912   -912   -912   -901   0.32   0   1
Torsion   -912   -912   -912   -901   -0.315   180   2
Torsion   -912   -912   -912   -901   0.132   0   3
Torsion   -912   -912   -916   -801   0.135   180   2
Torsion   -912   -912   -916   -801   0.118   0   3
Torsion   -916   -912   -912   -916   0.204   0   1
Torsion   -916   -912   -912   -916   0.699   180   2
Torsion   -916   -912   -912   -916   0.48   0   3
Torsion   -916   -912   -912   -901   -0.327   0   1
Torsion   -916   -912   -912   -901   0.536   180   2
Torsion   -916   -912   -912   -901   0.14   0   3
Torsion   -916   -912   -916   -801   0.744   0   1
Torsion   -916   -912   -916   -801   -1.7   180   2
Torsion   -916   -912   -916   -801   -0.16   0   3
Torsion   -912   -916   -912   -916   0.115   0   1
Torsion   -912   -916   -912   -916   -0.355   180   2
Torsion   -912   -916   -912   -916   0.361   0   3
Torsion   -901   -912   -912   -901   0.142   0   1
Torsion   -901   -912   -912   -901   -0.693   180   2
Torsion   -901   -912   -912   -901   0.157   0   3
Torsion   -901   -912   -916   -801   0.298   0   1
Torsion   -901   -912   -916   -801   -0.138   180   2
Torsion   -901   -912   -916   -801   0.173   0   3
Imptor	-912   -912   -916   -916       0.000  0     0.00
Imptor	-912   -916   -916   -901     0.000  0     0.00
Imptor	-912   -912   -916   -912       0.000  0     0.00
Imptor	-912   -912   -916   -901     0.000  0     0.00
Imptor	-912   -912   -912   -916       0.000  0     0.00
Imptor	-912   -912   -912   -901     0.000  0     0.00
Imptor	-912   -916   -912   -901     0.000  0     0.00
$end

$opt
fixed
63 XYZ
64 XYZ
65 XYZ
66 XYZ
67 XYZ
68 XYZ
69 XYZ
70 XYZ
71 XYZ
72 XYZ
73 XYZ
74 XYZ
75 XYZ
76 XYZ
77 XYZ
78 XYZ
79 XYZ
80 XYZ
81 XYZ
82 XYZ
83 XYZ
84 XYZ
85 XYZ
86 XYZ
87 XYZ
88 XYZ
89 XYZ
90 XYZ
91 XYZ
92 XYZ
93 XYZ
94 XYZ
95 XYZ
96 XYZ
97 XYZ
98 XYZ
99 XYZ
100 XYZ
101 XYZ
102 XYZ
103 XYZ
104 XYZ
105 XYZ
106 XYZ
107 XYZ
108 XYZ
109 XYZ
110 XYZ
111 XYZ
112 XYZ
113 XYZ
114 XYZ
115 XYZ
116 XYZ
117 XYZ
118 XYZ
119 XYZ
120 XYZ
121 XYZ
122 XYZ
123 XYZ
124 XYZ
125 XYZ
126 XYZ
127 XYZ
128 XYZ
129 XYZ
130 XYZ
131 XYZ
132 XYZ
133 XYZ
134 XYZ
135 XYZ
136 XYZ
137 XYZ
138 XYZ
139 XYZ
140 XYZ
141 XYZ
142 XYZ
143 XYZ
144 XYZ
145 XYZ
146 XYZ
147 XYZ
148 XYZ
149 XYZ
150 XYZ
151 XYZ
152 XYZ
153 XYZ
154 XYZ
155 XYZ
156 XYZ
157 XYZ
158 XYZ
159 XYZ
160 XYZ
161 XYZ
162 XYZ
163 XYZ
164 XYZ
165 XYZ
166 XYZ
167 XYZ
168 XYZ
169 XYZ
170 XYZ
171 XYZ
172 XYZ
173 XYZ
174 XYZ
175 XYZ
176 XYZ
177 XYZ
178 XYZ
179 XYZ
180 XYZ
181 XYZ
182 XYZ
183 XYZ
184 XYZ
185 XYZ
186 XYZ
187 XYZ
188 XYZ
189 XYZ
190 XYZ
191 XYZ
192 XYZ
193 XYZ
194 XYZ
195 XYZ
196 XYZ
197 XYZ
198 XYZ
199 XYZ
200 XYZ
201 XYZ
202 XYZ
203 XYZ
204 XYZ
205 XYZ
206 XYZ
207 XYZ
208 XYZ
209 XYZ
210 XYZ
211 XYZ
212 XYZ
213 XYZ
214 XYZ
215 XYZ
216 XYZ
217 XYZ
218 XYZ
219 XYZ
220 XYZ
221 XYZ
222 XYZ
223 XYZ
224 XYZ
225 XYZ
226 XYZ
227 XYZ
228 XYZ
229 XYZ
230 XYZ
231 XYZ
232 XYZ
233 XYZ
234 XYZ
235 XYZ
236 XYZ
237 XYZ
238 XYZ
239 XYZ
240 XYZ
241 XYZ
242 XYZ
243 XYZ
244 XYZ
245 XYZ
246 XYZ
247 XYZ
248 XYZ
249 XYZ
250 XYZ
251 XYZ
252 XYZ
253 XYZ
254 XYZ
255 XYZ
256 XYZ
257 XYZ
258 XYZ
259 XYZ
260 XYZ
261 XYZ
262 XYZ
263 XYZ
264 XYZ
265 XYZ
266 XYZ
267 XYZ
268 XYZ
269 XYZ
270 XYZ
271 XYZ
272 XYZ
273 XYZ
274 XYZ
275 XYZ
276 XYZ
277 XYZ
278 XYZ
279 XYZ
280 XYZ
281 XYZ
282 XYZ
283 XYZ
284 XYZ
285 XYZ
286 XYZ
287 XYZ
288 XYZ
289 XYZ
290 XYZ
291 XYZ
292 XYZ
293 XYZ
294 XYZ
295 XYZ
296 XYZ
297 XYZ
298 XYZ
299 XYZ
300 XYZ
301 XYZ
302 XYZ
303 XYZ
304 XYZ
305 XYZ
306 XYZ
307 XYZ
308 XYZ
309 XYZ
310 XYZ
311 XYZ
312 XYZ
313 XYZ
314 XYZ
315 XYZ
316 XYZ
317 XYZ
318 XYZ
319 XYZ
320 XYZ
321 XYZ
322 XYZ
323 XYZ
324 XYZ
325 XYZ
326 XYZ
327 XYZ
328 XYZ
329 XYZ
330 XYZ
331 XYZ
332 XYZ
333 XYZ
334 XYZ
335 XYZ
336 XYZ
337 XYZ
338 XYZ
339 XYZ
340 XYZ
341 XYZ
342 XYZ
343 XYZ
344 XYZ
345 XYZ
346 XYZ
347 XYZ
348 XYZ
349 XYZ
350 XYZ
351 XYZ
352 XYZ
353 XYZ
354 XYZ
355 XYZ
356 XYZ
357 XYZ
358 XYZ
359 XYZ
360 XYZ
361 XYZ
362 XYZ
363 XYZ
364 XYZ
365 XYZ
366 XYZ
367 XYZ
368 XYZ
369 XYZ
370 XYZ
371 XYZ
372 XYZ
373 XYZ
374 XYZ
375 XYZ
376 XYZ
377 XYZ
378 XYZ
379 XYZ
380 XYZ
381 XYZ
382 XYZ
383 XYZ
384 XYZ
385 XYZ
386 XYZ
387 XYZ
388 XYZ
389 XYZ
390 XYZ
391 XYZ
392 XYZ
393 XYZ
394 XYZ
395 XYZ
396 XYZ
397 XYZ
398 XYZ
399 XYZ
400 XYZ
401 XYZ
402 XYZ
403 XYZ
404 XYZ
405 XYZ
406 XYZ
407 XYZ
408 XYZ
409 XYZ
410 XYZ
411 XYZ
412 XYZ
413 XYZ
414 XYZ
415 XYZ
416 XYZ
417 XYZ
418 XYZ
419 XYZ
420 XYZ
421 XYZ
422 XYZ
423 XYZ
424 XYZ
425 XYZ
426 XYZ
427 XYZ
428 XYZ
429 XYZ
430 XYZ
431 XYZ
432 XYZ
433 XYZ
434 XYZ
435 XYZ
436 XYZ
437 XYZ
438 XYZ
439 XYZ
440 XYZ
441 XYZ
442 XYZ
443 XYZ
444 XYZ
445 XYZ
446 XYZ
447 XYZ
448 XYZ
449 XYZ
450 XYZ
451 XYZ
452 XYZ
453 XYZ
454 XYZ
455 XYZ
456 XYZ
457 XYZ
458 XYZ
459 XYZ
460 XYZ
461 XYZ
462 XYZ
463 XYZ
464 XYZ
465 XYZ
466 XYZ
467 XYZ
468 XYZ
469 XYZ
470 XYZ
471 XYZ
472 XYZ
473 XYZ
474 XYZ
475 XYZ
476 XYZ
477 XYZ
478 XYZ
479 XYZ
480 XYZ
481 XYZ
482 XYZ
483 XYZ
484 XYZ
485 XYZ
486 XYZ
487 XYZ
488 XYZ
489 XYZ
490 XYZ
491 XYZ
492 XYZ
493 XYZ
494 XYZ
495 XYZ
496 XYZ
497 XYZ
498 XYZ
499 XYZ
500 XYZ
501 XYZ
502 XYZ
503 XYZ
504 XYZ
505 XYZ
506 XYZ
507 XYZ
508 XYZ
509 XYZ
510 XYZ
511 XYZ
512 XYZ
513 XYZ
514 XYZ
515 XYZ
516 XYZ
517 XYZ
518 XYZ
519 XYZ
520 XYZ
521 XYZ
522 XYZ
523 XYZ
524 XYZ
525 XYZ
526 XYZ
527 XYZ
528 XYZ
529 XYZ
530 XYZ
531 XYZ
532 XYZ
533 XYZ
534 XYZ
535 XYZ
536 XYZ
537 XYZ
538 XYZ
539 XYZ
540 XYZ
541 XYZ
542 XYZ
543 XYZ
544 XYZ
545 XYZ
546 XYZ
547 XYZ
548 XYZ
549 XYZ
550 XYZ
551 XYZ
552 XYZ
553 XYZ
554 XYZ
555 XYZ
556 XYZ
557 XYZ
558 XYZ
559 XYZ
560 XYZ
561 XYZ
562 XYZ
563 XYZ
564 XYZ
565 XYZ
566 XYZ
567 XYZ
568 XYZ
569 XYZ
570 XYZ
571 XYZ
572 XYZ
573 XYZ
574 XYZ
575 XYZ
576 XYZ
577 XYZ
578 XYZ
579 XYZ
580 XYZ
581 XYZ
582 XYZ
583 XYZ
584 XYZ
585 XYZ
586 XYZ
587 XYZ
588 XYZ
589 XYZ
590 XYZ
591 XYZ
592 XYZ
593 XYZ
594 XYZ
595 XYZ
596 XYZ
597 XYZ
598 XYZ
599 XYZ
600 XYZ
601 XYZ
602 XYZ
603 XYZ
604 XYZ
605 XYZ
606 XYZ
607 XYZ
608 XYZ
609 XYZ
610 XYZ
611 XYZ
612 XYZ
613 XYZ
614 XYZ
615 XYZ
616 XYZ
617 XYZ
618 XYZ
619 XYZ
620 XYZ
621 XYZ
622 XYZ
623 XYZ
624 XYZ
625 XYZ
626 XYZ
627 XYZ
628 XYZ
629 XYZ
630 XYZ
631 XYZ
632 XYZ
633 XYZ
634 XYZ
635 XYZ
636 XYZ
637 XYZ
638 XYZ
639 XYZ
640 XYZ
641 XYZ
642 XYZ
643 XYZ
644 XYZ
645 XYZ
646 XYZ
647 XYZ
648 XYZ
649 XYZ
650 XYZ
651 XYZ
652 XYZ
653 XYZ
654 XYZ
655 XYZ
656 XYZ
657 XYZ
658 XYZ
659 XYZ
660 XYZ
661 XYZ
662 XYZ
663 XYZ
664 XYZ
665 XYZ
666 XYZ
667 XYZ
668 XYZ
669 XYZ
670 XYZ
671 XYZ
672 XYZ
673 XYZ
674 XYZ
675 XYZ
676 XYZ
677 XYZ
678 XYZ
679 XYZ
680 XYZ
681 XYZ
682 XYZ
683 XYZ
684 XYZ
685 XYZ
686 XYZ
687 XYZ
688 XYZ
689 XYZ
690 XYZ
691 XYZ
692 XYZ
693 XYZ
694 XYZ
695 XYZ
696 XYZ
697 XYZ
698 XYZ
699 XYZ
700 XYZ
701 XYZ
702 XYZ
703 XYZ
704 XYZ
705 XYZ
706 XYZ
707 XYZ
708 XYZ
709 XYZ
710 XYZ
711 XYZ
712 XYZ
713 XYZ
714 XYZ
715 XYZ
716 XYZ
717 XYZ
718 XYZ
719 XYZ
720 XYZ
721 XYZ
722 XYZ
723 XYZ
724 XYZ
725 XYZ
726 XYZ
727 XYZ
728 XYZ
729 XYZ
730 XYZ
731 XYZ
732 XYZ
733 XYZ
734 XYZ
735 XYZ
736 XYZ
737 XYZ
738 XYZ
739 XYZ
740 XYZ
741 XYZ
742 XYZ
743 XYZ
744 XYZ
745 XYZ
746 XYZ
747 XYZ
748 XYZ
749 XYZ
750 XYZ
751 XYZ
752 XYZ
753 XYZ
754 XYZ
755 XYZ
756 XYZ
757 XYZ
758 XYZ
759 XYZ
760 XYZ
761 XYZ
762 XYZ
763 XYZ
764 XYZ
765 XYZ
766 XYZ
767 XYZ
768 XYZ
769 XYZ
770 XYZ
771 XYZ
772 XYZ
773 XYZ
774 XYZ
775 XYZ
776 XYZ
777 XYZ
778 XYZ
779 XYZ
780 XYZ
781 XYZ
782 XYZ
783 XYZ
784 XYZ
785 XYZ
786 XYZ
787 XYZ
788 XYZ
789 XYZ
790 XYZ
791 XYZ
792 XYZ
793 XYZ
794 XYZ
795 XYZ
796 XYZ
797 XYZ
798 XYZ
799 XYZ
800 XYZ
801 XYZ
802 XYZ
803 XYZ
804 XYZ
805 XYZ
806 XYZ
807 XYZ
808 XYZ
809 XYZ
810 XYZ
811 XYZ
812 XYZ
813 XYZ
814 XYZ
815 XYZ
816 XYZ
817 XYZ
818 XYZ
819 XYZ
820 XYZ
821 XYZ
822 XYZ
823 XYZ
824 XYZ
825 XYZ
826 XYZ
827 XYZ
828 XYZ
829 XYZ
830 XYZ
831 XYZ
832 XYZ
833 XYZ
834 XYZ
835 XYZ
836 XYZ
837 XYZ
838 XYZ
839 XYZ
840 XYZ
841 XYZ
842 XYZ
843 XYZ
844 XYZ
845 XYZ
846 XYZ
847 XYZ
848 XYZ
849 XYZ
850 XYZ
851 XYZ
852 XYZ
853 XYZ
854 XYZ
855 XYZ
856 XYZ
857 XYZ
858 XYZ
859 XYZ
860 XYZ
861 XYZ
862 XYZ
863 XYZ
864 XYZ
865 XYZ
866 XYZ
867 XYZ
868 XYZ
869 XYZ
870 XYZ
871 XYZ
872 XYZ
873 XYZ
874 XYZ
875 XYZ
876 XYZ
877 XYZ
878 XYZ
879 XYZ
880 XYZ
881 XYZ
882 XYZ
883 XYZ
884 XYZ
885 XYZ
886 XYZ
887 XYZ
888 XYZ
889 XYZ
890 XYZ
891 XYZ
892 XYZ
893 XYZ
894 XYZ
895 XYZ
896 XYZ
897 XYZ
898 XYZ
899 XYZ
900 XYZ
901 XYZ
902 XYZ
903 XYZ
904 XYZ
905 XYZ
906 XYZ
907 XYZ
908 XYZ
909 XYZ
910 XYZ
911 XYZ
912 XYZ
913 XYZ
914 XYZ
915 XYZ
916 XYZ
917 XYZ
918 XYZ
919 XYZ
920 XYZ
921 XYZ
922 XYZ
923 XYZ
924 XYZ
925 XYZ
926 XYZ
927 XYZ
928 XYZ
929 XYZ
930 XYZ
931 XYZ
932 XYZ
933 XYZ
934 XYZ
935 XYZ
936 XYZ
937 XYZ
938 XYZ
939 XYZ
940 XYZ
941 XYZ
942 XYZ
943 XYZ
944 XYZ
945 XYZ
946 XYZ
947 XYZ
948 XYZ
949 XYZ
950 XYZ
951 XYZ
952 XYZ
953 XYZ
954 XYZ
955 XYZ
956 XYZ
957 XYZ
958 XYZ
959 XYZ
960 XYZ
961 XYZ
962 XYZ
963 XYZ
964 XYZ
965 XYZ
966 XYZ
967 XYZ
968 XYZ
969 XYZ
970 XYZ
971 XYZ
972 XYZ
973 XYZ
974 XYZ
975 XYZ
976 XYZ
977 XYZ
978 XYZ
979 XYZ
980 XYZ
981 XYZ
982 XYZ
983 XYZ
984 XYZ
985 XYZ
986 XYZ
987 XYZ
988 XYZ
989 XYZ
990 XYZ
991 XYZ
992 XYZ
993 XYZ
994 XYZ
995 XYZ
996 XYZ
997 XYZ
998 XYZ
999 XYZ
1000 XYZ
1001 XYZ
1002 XYZ
1003 XYZ
1004 XYZ
1005 XYZ
1006 XYZ
1007 XYZ
1008 XYZ
1009 XYZ
1010 XYZ
1011 XYZ
1012 XYZ
1013 XYZ
1014 XYZ
1015 XYZ
1016 XYZ
1017 XYZ
1018 XYZ
1019 XYZ
1020 XYZ
1021 XYZ
1022 XYZ
1023 XYZ
1024 XYZ
1025 XYZ
1026 XYZ
1027 XYZ
1028 XYZ
1029 XYZ
1030 XYZ
1031 XYZ
1032 XYZ
1033 XYZ
1034 XYZ
1035 XYZ
1036 XYZ
1037 XYZ
1038 XYZ
1039 XYZ
1040 XYZ
1041 XYZ
1042 XYZ
1043 XYZ
1044 XYZ
1045 XYZ
1046 XYZ
1047 XYZ
1048 XYZ
1049 XYZ
1050 XYZ
1051 XYZ
1052 XYZ
1053 XYZ
1054 XYZ
1055 XYZ
1056 XYZ
1057 XYZ
1058 XYZ
1059 XYZ
1060 XYZ
1061 XYZ
1062 XYZ
1063 XYZ
1064 XYZ
1065 XYZ
1066 XYZ
1067 XYZ
1068 XYZ
1069 XYZ
1070 XYZ
1071 XYZ
1072 XYZ
1073 XYZ
1074 XYZ
1075 XYZ
1076 XYZ
1077 XYZ
1078 XYZ
1079 XYZ
1080 XYZ
1081 XYZ
1082 XYZ
1083 XYZ
1084 XYZ
1085 XYZ
1086 XYZ
1087 XYZ
1088 XYZ
1089 XYZ
1090 XYZ
1091 XYZ
1092 XYZ
1093 XYZ
1094 XYZ
1095 XYZ
1096 XYZ
1097 XYZ
1098 XYZ
1099 XYZ
1100 XYZ
1101 XYZ
1102 XYZ
1103 XYZ
1104 XYZ
1105 XYZ
1106 XYZ
1107 XYZ
1108 XYZ
1109 XYZ
1110 XYZ
1111 XYZ
1112 XYZ
1113 XYZ
1114 XYZ
1115 XYZ
1116 XYZ
1117 XYZ
1118 XYZ
1119 XYZ
1120 XYZ
1121 XYZ
1122 XYZ
1123 XYZ
1124 XYZ
1125 XYZ
1126 XYZ
1127 XYZ
1128 XYZ
1129 XYZ
1130 XYZ
1131 XYZ
1132 XYZ
1133 XYZ
1134 XYZ
1135 XYZ
1136 XYZ
1137 XYZ
1138 XYZ
1139 XYZ
1140 XYZ
1141 XYZ
1142 XYZ
1143 XYZ
1144 XYZ
1145 XYZ
1146 XYZ
1147 XYZ
1148 XYZ
1149 XYZ
1150 XYZ
1151 XYZ
1152 XYZ
1153 XYZ
1154 XYZ
1155 XYZ
1156 XYZ
1157 XYZ
1158 XYZ
1159 XYZ
1160 XYZ
1161 XYZ
1162 XYZ
1163 XYZ
1164 XYZ
1165 XYZ
1166 XYZ
1167 XYZ
1168 XYZ
1169 XYZ
1170 XYZ
1171 XYZ
1172 XYZ
1173 XYZ
1174 XYZ
1175 XYZ
1176 XYZ
1177 XYZ
1178 XYZ
1179 XYZ
1180 XYZ
1181 XYZ
1182 XYZ
1183 XYZ
1184 XYZ
1185 XYZ
1186 XYZ
1187 XYZ
1188 XYZ
1189 XYZ
1190 XYZ
1191 XYZ
1192 XYZ
1193 XYZ
1194 XYZ
1195 XYZ
1196 XYZ
1197 XYZ
1198 XYZ
1199 XYZ
1200 XYZ
1201 XYZ
1202 XYZ
1203 XYZ
1204 XYZ
1205 XYZ
1206 XYZ
1207 XYZ
1208 XYZ
1209 XYZ
1210 XYZ
1211 XYZ
1212 XYZ
1213 XYZ
1214 XYZ
1215 XYZ
1216 XYZ
1217 XYZ
1218 XYZ
1219 XYZ
1220 XYZ
1221 XYZ
1222 XYZ
1223 XYZ
1224 XYZ
1225 XYZ
1226 XYZ
1227 XYZ
1228 XYZ
1229 XYZ
1230 XYZ
1231 XYZ
1232 XYZ
1233 XYZ
1234 XYZ
1235 XYZ
1236 XYZ
1237 XYZ
1238 XYZ
1239 XYZ
1240 XYZ
1241 XYZ
1242 XYZ
1243 XYZ
1244 XYZ
1245 XYZ
1246 XYZ
1247 XYZ
1248 XYZ
1249 XYZ
1250 XYZ
1251 XYZ
1252 XYZ
1253 XYZ
1254 XYZ
1255 XYZ
1256 XYZ
1257 XYZ
1258 XYZ
1259 XYZ
1260 XYZ
1261 XYZ
1262 XYZ
1263 XYZ
1264 XYZ
1265 XYZ
1266 XYZ
1267 XYZ
1268 XYZ
1269 XYZ
1270 XYZ
1271 XYZ
1272 XYZ
1273 XYZ
1274 XYZ
1275 XYZ
1276 XYZ
1277 XYZ
1278 XYZ
1279 XYZ
1280 XYZ
1281 XYZ
1282 XYZ
1283 XYZ
1284 XYZ
1285 XYZ
1286 XYZ
1287 XYZ
1288 XYZ
1289 XYZ
1290 XYZ
1291 XYZ
1292 XYZ
1293 XYZ
1294 XYZ
1295 XYZ
1296 XYZ
1297 XYZ
1298 XYZ
1299 XYZ
1300 XYZ
1301 XYZ
1302 XYZ
1303 XYZ
1304 XYZ
1305 XYZ
1306 XYZ
1307 XYZ
1308 XYZ
1309 XYZ
1310 XYZ
1311 XYZ
1312 XYZ
1313 XYZ
1314 XYZ
1315 XYZ
1316 XYZ
1317 XYZ
1318 XYZ
1319 XYZ
1320 XYZ
1321 XYZ
1322 XYZ
1323 XYZ
1324 XYZ
1325 XYZ
1326 XYZ
1327 XYZ
1328 XYZ
1329 XYZ
1330 XYZ
1331 XYZ
1332 XYZ
1333 XYZ
1334 XYZ
1335 XYZ
1336 XYZ
1337 XYZ
1338 XYZ
1339 XYZ
1340 XYZ
1341 XYZ
1342 XYZ
1343 XYZ
1344 XYZ
1345 XYZ
1346 XYZ
1347 XYZ
1348 XYZ
1349 XYZ
1350 XYZ
1351 XYZ
1352 XYZ
1353 XYZ
1354 XYZ
1355 XYZ
1356 XYZ
1357 XYZ
1358 XYZ
1359 XYZ
1360 XYZ
1361 XYZ
1362 XYZ
1363 XYZ
1364 XYZ
1365 XYZ
1366 XYZ
1367 XYZ
1368 XYZ
1369 XYZ
1370 XYZ
1371 XYZ
1372 XYZ
1373 XYZ
1374 XYZ
1375 XYZ
1376 XYZ
1377 XYZ
1378 XYZ
1379 XYZ
1380 XYZ
1381 XYZ
1382 XYZ
1383 XYZ
1384 XYZ
1385 XYZ
1386 XYZ
1387 XYZ
1388 XYZ
1389 XYZ
1390 XYZ
1391 XYZ
1392 XYZ
1393 XYZ
1394 XYZ
1395 XYZ
1396 XYZ
1397 XYZ
1398 XYZ
1399 XYZ
1400 XYZ
1401 XYZ
1402 XYZ
1403 XYZ
1404 XYZ
1405 XYZ
1406 XYZ
1407 XYZ
1408 XYZ
1409 XYZ
1410 XYZ
1411 XYZ
1412 XYZ
1413 XYZ
1414 XYZ
1415 XYZ
1416 XYZ
1417 XYZ
1418 XYZ
1419 XYZ
1420 XYZ
1421 XYZ
1422 XYZ
1423 XYZ
1424 XYZ
1425 XYZ
1426 XYZ
1427 XYZ
1428 XYZ
1429 XYZ
1430 XYZ
1431 XYZ
1432 XYZ
1433 XYZ
1434 XYZ
1435 XYZ
1436 XYZ
1437 XYZ
1438 XYZ
1439 XYZ
1440 XYZ
1441 XYZ
1442 XYZ
1443 XYZ
endfixed
$end

$molecule
0 1
C        18.0052567297    4.7386960369    9.2738613334	 0	 9	 10	 11	 3
H        16.4080556440    5.7841637736   10.2899767431	 0	 3	 0	 0	 0
C        16.5284432990    4.9408102496    9.5898020918	 0	 1	 2	 4	 6
H        16.1353027319    4.0514351141   10.1091851758	 0	 3	 0	 0	 0
H        16.0413577645    6.1117998106    7.8316668361	 0	 6	 0	 0	 0
C        15.6842456712    5.2015054232    8.3447929020	 0	 3	 5	 7	 8
H        14.6224919643    5.3557362953    8.5887300884	 0	 6	 0	 0	 0
H        15.7426424734    4.3354224014    7.6605205896	 0	 6	 0	 0	 0
H        18.4264711324    5.6211738608    8.7651980244	 0	 1	 0	 0	 0
H        18.1515178441    3.8677083396    8.6155662209	 0	 1	 0	 0	 0
H        18.5913226061    4.5767054488   10.1890536927	 0	 1	 0	 0	 0
H        16.1695074769    5.2002414554    5.9784028095	 0	 14	 0	 0	 0
Al       16.4724611346    3.4733912679    4.3097321876	 0	 17	 14	 15	 16
O        16.3241664807    5.2638575530    5.0151463242	 0	 18	 12	 13	 0
O        18.0777745866    3.2229756299    3.7826924030	 0	 19	 13	 0	 0
O        15.3159041745    3.3680023102    3.0457388904	 0	 20	 13	 0	 0
O        16.0355036337    2.6625350449    5.7645527895	 0	 13	 21	 0	 0
Si       16.5352603275    6.8618443875    4.4590892452	 0	 22	 14	 23	 24
Si       18.8515373989    2.6121061373    2.4777982075	 0	 63	 65	 15	 64
Si       13.9106501364    2.9317552177    2.3785329783	 0	 25	 66	 67	 16
Si       15.6613373261    1.2037461211    6.3419509417	 0	 17	 26	 27	 68
O        15.4892883170    7.2018003362    3.2738717436	 0	 18	 28	 0	 0
O        16.3021675861    7.7491111790    5.7895204525	 0	 18	 29	 0	 0
O        18.0358974243    7.0073681455    3.8912394354	 0	 18	 30	 0	 0
O        12.6647701582    3.7924627808    3.0516661806	 0	 20	 31	 0	 0
O        14.0230191277    1.1109604169    6.5367532524	 0	 21	 32	 0	 0
O        16.3798497462    1.0124442841    7.8107386226	 0	 33	 21	 0	 0
Si       14.1003310213    7.7846358305    2.5835285211	 0	 35	 22	 71	 72
Si       15.8939997131    9.1386263568    6.5693061393	 0	 41	 73	 38	 23
Si       18.8930580428    7.6485989433    2.6214386357	 0	 74	 75	 76	 24
Si       11.6399169308    3.8170682797    4.3149688582	 0	 25	 37	 70	 0
Si       12.4524046014    1.5487429417    6.3824385581	 0	 26	 37	 79	 80
Si       16.0832490584    0.5667313614    9.3359111028	 0	 27	 60	 59	 94
O        12.2841447071    7.6338117067    5.7675614829	 0	 39	 40	 0	 0
O        12.8263746868    7.0186100052    3.2396763494	 0	 28	 39	 0	 0
O        11.3523509383    5.3783202392    4.7513102874	 0	 39	 0	 0	 0
O        12.2847935630    2.9894632947    5.5802806604	 0	 31	 32	 0	 0
O        14.2762832256    9.1893949638    6.6966389723	 0	 29	 40	 0	 0
Si       11.6842951526    6.9318150348    4.4104170801	 0	 34	 35	 36	 69
Si       12.6515527826    8.9912343443    6.6100308309	 0	 34	 38	 77	 78
O        16.6067157432    9.0960786560    8.0326328218	 0	 42	 29	 0	 0
Si       16.3860781134    9.5972864821    9.5748141152	 0	 41	 83	 46	 47
O        16.3599271418    7.0715232917   13.1902836858	 0	 53	 54	 0	 0
O        14.6138351486    5.0575244523   12.9234097085	 0	 57	 53	 0	 0
O        17.9110688412    4.9418979542   12.7113712471	 0	 58	 54	 0	 0
O        17.4604409165    8.8417874579   10.5323877341	 0	 42	 55	 0	 0
O        14.8580058354    9.2283059121   10.0177582066	 0	 42	 56	 0	 0
O        18.8550371984    7.3930942593   12.2843165374	 0	 54	 55	 0	 0
O        14.0669331000    7.4445589487   11.8815669028	 0	 53	 56	 0	 0
O        16.2122622114    2.9204230455   13.1352081118	 0	 57	 58	 0	 0
O        18.6794788927    2.4439726417   12.2051761757	 0	 58	 61	 0	 0
O        13.9648392011    2.8037595633   11.6733344772	 0	 57	 62	 0	 0
Si       14.7695990409    6.6612398341   13.1326242317	 0	 49	 89	 43	 44
Si       17.8938288136    6.4850169035   13.2400643620	 0	 90	 43	 45	 48
Si       18.7567782339    8.8487081115   11.5411042685	 0	 84	 46	 88	 48
Si       13.8378807378    8.9570727471   11.2797117738	 0	 49	 82	 85	 47
Si       14.6568808044    3.4317040103   13.0101663298	 0	 44	 91	 52	 50
Si       17.7862978422    3.3830970187   13.1905859881	 0	 50	 51	 92	 45
O        17.1635862509    1.2917769864   10.3305365195	 0	 33	 61	 0	 0
O        14.5673932279    1.0325723456    9.7416259761	 0	 33	 62	 0	 0
Si       18.4658594051    1.0879716815   11.3057097166	 0	 81	 59	 93	 51
Si       13.5746850960    1.3475317431   11.0045122526	 0	 52	 60	 86	 87
O        18.3818766335    3.6332739201    1.2166711160	-1	 19	 95	 0	 0
O        18.5168766335    0.9662739201    2.2966711160	-1	 19	 96	 0	 0
O        20.4648766335    2.6932739201    2.7876711160	-1	 97	 19	 0	 0
O        13.9128766335    3.2982739201    0.8256711160	-1	 98	 20	 0	 0
O        13.5718766335    1.3492739201    2.5836711160	-1	 99	 20	 0	 0
O        16.2298766335   -0.0287260799    5.4576711160	-1	 100	 21	 0	 0
O        10.4338766335    7.7652739201    3.8426711160	-1	 101	 39	 0	 0
O        10.2498766335    3.1892739201    3.8506711160	-1	 102	 31	 0	 0
O        14.1178766335    7.4712739201    1.0246711160	-1	 114	 28	 0	 0
O        14.0098766335    9.3832739201    2.8626711160	-1	 115	 28	 0	 0
O        16.4068766335   10.4222739201    5.7696711160	-1	 116	 29	 0	 0
O        18.4868766335    6.9162739201    1.2706711160	-1	 117	 30	 0	 0
O        18.6538766335    9.2522739201    2.5076711160	-1	 118	 30	 0	 0
O        20.4048766335    7.2652739201    2.8676711160	-1	 30	 119	 0	 0
O        12.0688766335   10.2552739201    5.8206711160	-1	 109	 40	 0	 0
O        12.0508766335    8.8592739201    8.0786711160	-1	 110	 40	 0	 0
O        11.7358766335    0.4022739201    5.5126711160	-1	 120	 32	 0	 0
O        11.7118766335    1.7152739201    7.8126711160	-1	 121	 32	 0	 0
O        19.7838766335    0.8412739201   10.4376711160	-1	 489	 61	 0	 0
O        12.3568766335    9.0662739201   10.7206711160	-1	 110	 56	 0	 0
O        16.6018766335   11.1762739201    9.6806711160	-1	 42	 237	 0	 0
O        18.5508766335    9.9972739201   12.6476711160	-1	 235	 55	 0	 0
O        14.1108766335   10.0442739201   12.4396711160	-1	 234	 56	 0	 0
O        12.0908766335    1.4222739201   10.4476711160	-1	 121	 62	 0	 0
O        13.7388766335    0.1952739201   12.1216711160	-1	 738	 62	 0	 0
O        20.0858766335    9.0922739201   10.6926711160	-1	 55	 544	 0	 0
O        14.0588766335    7.1042739201   14.4926711160	-1	 652	 53	 0	 0
O        18.4278766335    6.5492739201   14.7386711160	-1	 653	 54	 0	 0
O        13.8538766335    2.9302739201   14.2936711160	-1	 57	 660	 0	 0
O        18.3228766335    3.2652739201   14.6846711160	-1	 58	 661	 0	 0
O        18.1878766335   -0.1537260799   12.2866711160	-1	 739	 61	 0	 0
O        16.2028766335   -1.0177260799    9.5276711160	-1	 33	 741	 0	 0
Si       17.8398766335    3.7682739201   -0.2953288840	-23	 1193	 1194	 132	 63
Si       18.7878766335   -0.6107260799    2.5566711160	-23	 1201	 1203	 133	 64
Si       21.7808766335    3.4662739201    2.2616711160	-23	 65	 1196	 1197	 1198
Si       14.7098766335    3.8222739201   -0.4723288840	-23	 66	 1195	 132	 1192
Si       13.7648766335   -0.2477260799    2.4496711160	-23	 67	 134	 1199	 1200
Si       16.4448766335   -1.2047260799    4.3736711160	-23	 1202	 68	 133	 134
Si        8.8678766335    7.9672739201    4.1516711160	-23	 105	 69	 103	 104
Si        8.6528766335    3.0462739201    4.0506711160	-23	 106	 107	 108	 70
O         8.3458766335    7.1222739201    5.4676711160	-1	 101	 111	 0	 0
O         8.0158766335    7.4732739201    2.8646711160	-1	 101	 112	 0	 0
O         8.6138766335    9.5392739201    4.4296711160	-1	 113	 101	 0	 0
O         8.1728766335    3.8752739201    5.3616711160	-1	 122	 102	 0	 0
O         7.8908766335    3.6532739201    2.7436711160	-1	 123	 102	 0	 0
O         8.2628766335    1.4772739201    4.2296711160	-1	 124	 102	 0	 0
Si       11.9168766335   11.5312739201    4.8286711160	-23	 162	 220	 77	 156
Si       11.6038766335    9.6642739201    9.4146711160	-22	 82	 170	 173	 78
Si        7.8098766335    7.0042739201    6.9906711160	-2	 211	 155	 196	 103
Si        6.4988766335    7.1932739201    2.3486711160	-2	 153	 219	 212	 104
Si        8.9668766335   11.1162739201    4.2516711160	-2	 105	 220	 206	 207
Si       14.8178766335    7.0072739201   -0.3593288840	-23	 1192	 276	 71	 288
Si       14.2558766335   10.9852739201    2.8306711160	-23	 161	 156	 157	 72
Si       16.7378766335   11.5302739201    4.6356711160	-23	 73	 163	 161	 160
Si       17.9378766335    6.8322739201   -0.2503288840	-23	 1193	 74	 276	 285
Si       19.0158766335   10.8122739201    2.7876711160	-23	 75	 387	 159	 160
Si       21.7458766335    6.5502739201    2.2906711160	-23	 76	 469	 1198	 479
Si       11.4468766335   -0.7787260799    4.4386711160	-23	 701	 711	 79	 1199
Si       11.2648766335    0.9092739201    9.1496711160	-22	 718	 86	 185	 80
Si        7.6788766335    3.9342739201    6.9016711160	-2	 106	 147	 143	 155
Si        6.3928766335    4.0612739201    2.2576711160	-2	 153	 107	 148	 152
Si        8.5268766335   -0.1037260799    3.9406711160	-2	 108	 701	 695	 696
O         3.7978766335    3.2592739201    8.2576711160	-1	 233	 225	 0	 0
O         9.1808766335   15.3962739201    8.9266711160	-1	 226	 253	 0	 0
O         4.1518766335   15.5932739201    8.8866711160	-1	 257	 230	 0	 0
O         5.9928766335   15.7312739201    0.8406711160	-1	 228	 255	 0	 0
O         2.5568766335   15.8702739201    0.9976711160	-1	 229	 256	 0	 0
O         2.7248766335    4.1902739201    3.3346711160	-1	 231	 232	 0	 0
O         1.3208766335    5.8492739201    1.8336711160	-1	 231	 263	 0	 0
O        16.2698766335    3.3552739201   -0.3943288840	-1	 98	 95	 0	 0
O        17.9738766335   -1.1627260799    3.8456711160	-1	 100	 96	 0	 0
O        15.2548766335   -0.6977260799    2.9266711160	-1	 99	 100	 0	 0
O         7.1238766335    1.7082739201    9.6776711160	-1	 221	 222	 0	 0
O         6.2548766335    1.4872739201   12.1526711160	-1	 637	 222	 0	 0
O         3.9808766335    1.8582739201   -0.0803288840	-1	 223	 224	 0	 0
O         4.5308766335    1.5032739201   10.1476711160	-1	 225	 222	 0	 0
O         7.7518766335   17.0012739201   10.4686711160	-1	 226	 227	 0	 0
O         6.5778766335   17.4262739201   12.7616711160	-1	 227	 639	 0	 0
O         4.3308766335   17.8132739201    0.5746711160	-1	 228	 229	 0	 0
O         5.1218766335   17.4492739201   10.5396711160	-1	 227	 230	 0	 0
O         8.5438766335    2.9252739201    7.8256711160	-1	 122	 221	 0	 0
O         3.7868766335    0.6612739201    7.7286711160	-1	 225	 730	 0	 0
O        20.3068766335   17.1992739201   10.9306711160	-1	 242	 495	 0	 0
O         3.8278766335    3.6212739201    5.6356711160	-1	 233	 232	 0	 0
O         6.1098766335    3.5002739201    6.9826711160	-1	 233	 122	 0	 0
O         5.3458766335    3.7002739201    3.4566711160	-1	 123	 232	 0	 0
O         3.5828766335    1.7342739201    3.7826711160	-1	 729	 232	 0	 0
O         1.6838766335    0.9712739201    0.8536711160	-1	 224	 728	 0	 0
O         2.1808766335    3.5962739201    0.7976711160	-1	 231	 224	 0	 0
O         6.0168766335    3.2762739201    0.8886711160	-1	 123	 223	 0	 0
O         6.3238766335    5.6442739201    1.9196711160	-1	 123	 112	 0	 0
O         4.4678766335    5.5842739201    7.3016711160	-1	 233	 265	 0	 0
O         7.8738766335    5.4502739201    7.4556711160	-1	 122	 111	 0	 0
O        13.1618766335   11.6802739201    3.8046711160	-1	 115	 109	 0	 0
O        14.0708766335   11.5782739201    1.3326711160	-1	 115	 317	 0	 0
O        16.3008766335   11.0782739201   13.4756711160	-1	 234	 235	 0	 0
O        18.5558766335   11.6732739201    1.4876711160	-1	 318	 118	 0	 0
O        18.2638766335   11.3522739201    4.1196711160	-1	 116	 118	 0	 0
O        15.7518766335   11.3452739201    3.3546711160	-1	 115	 116	 0	 0
O        11.8158766335   12.8922739201    5.7156711160	-1	 109	 239	 0	 0
O        16.5798766335   13.0092739201    5.2866711160	-1	 116	 238	 0	 0
O        17.7368766335   13.4692739201   10.2556711160	-1	 236	 237	 0	 0
O        16.5678766335   13.1712739201    7.9326711160	-1	 237	 238	 0	 0
O        14.2828766335   13.2552739201    6.6006711160	-1	 238	 239	 0	 0
O        12.2178766335   13.6792739201    8.2256711160	-1	 239	 240	 0	 0
O        12.5288766335   13.2712739201   10.8276711160	-1	 241	 240	 0	 0
O        15.0758766335   13.2982739201   10.1286711160	-1	 241	 237	 0	 0
O        11.9678766335   11.2362739201    9.2066711160	-1	 110	 240	 0	 0
O        18.3118766335   12.6512739201   12.7256711160	-1	 235	 236	 0	 0
O        14.3658766335   12.6922739201   12.6516711160	-1	 241	 234	 0	 0
O        10.0168766335    9.4602739201    9.6856711160	-1	 110	 248	 0	 0
O        10.1268766335   13.0662739201    9.7676711160	-1	 253	 240	 0	 0
O        19.2218766335   14.9562739201   11.8576711160	-1	 242	 236	 0	 0
O        14.1458766335   15.1402739201   11.8136711160	-1	 241	 247	 0	 0
O        16.0168766335   15.2852739201    6.4366711160	-1	 244	 238	 0	 0
O        12.6618766335   15.3442739201    6.2346711160	-1	 245	 239	 0	 0
O        17.8438766335   16.5502739201   10.2556711160	-1	 242	 243	 0	 0
O        16.6908766335   17.3212739201    8.0146711160	-1	 243	 244	 0	 0
O        14.3648766335   17.3472739201    6.7436711160	-1	 244	 245	 0	 0
O        12.2398766335   16.9542739201    8.2856711160	-1	 245	 246	 0	 0
O        12.6638766335   17.1432739201   10.8976711160	-1	 246	 247	 0	 0
O        15.2028766335   16.9492739201   10.1706711160	-1	 243	 247	 0	 0
O         9.6988766335    1.2012739201    9.4676711160	-1	 121	 221	 0	 0
O        10.2608766335   17.6102739201    9.9276711160	-1	 226	 246	 0	 0
O         7.4148766335    9.1232739201    9.9166711160	-1	 249	 248	 0	 0
O         6.5068766335    9.2622739201   12.3846711160	-1	 249	 664	 0	 0
O         4.2478766335    9.6982739201    0.1906711160	-1	 250	 251	 0	 0
O         4.8238766335    9.4642739201   10.3646711160	-1	 249	 252	 0	 0
O         7.6728766335   13.7862739201   10.3946711160	-1	 253	 254	 0	 0
O         6.4178766335   13.3522739201   12.6456711160	-1	 666	 254	 0	 0
O         4.1898766335   13.7962739201    0.5176711160	-1	 255	 256	 0	 0
O         5.0168766335   13.5822739201   10.4086711160	-1	 257	 254	 0	 0
O         6.5338766335   11.4402739201   10.8106711160	-1	 249	 254	 0	 0
O         8.7268766335    7.8952739201    7.9876711160	-1	 111	 248	 0	 0
O         8.4318766335   10.5282739201    7.8656711160	-1	 261	 248	 0	 0
O         8.2508766335   13.1902739201    7.8626711160	-1	 253	 261	 0	 0
O         3.9768766335    7.9042739201    8.3656711160	-1	 265	 252	 0	 0
O         4.1298766335   10.5352739201    8.0226711160	-1	 260	 252	 0	 0
O         4.2408766335   13.1942739201    7.8696711160	-1	 257	 260	 0	 0
O        20.1888766335   12.7042739201   10.8216711160	-1	 236	 550	 0	 0
O         3.0628766335   12.0452739201    3.2256711160	-1	 258	 259	 0	 0
O         3.9308766335   11.7432739201    5.6936711160	-1	 259	 260	 0	 0
O         6.2498766335   11.7032739201    6.9676711160	-1	 260	 261	 0	 0
O         8.5148766335   11.8982739201    5.6026711160	-1	 113	 261	 0	 0
O         8.1838766335   11.7352739201    2.9726711160	-1	 113	 262	 0	 0
O         5.6448766335   11.6522739201    3.6816711160	-1	 259	 262	 0	 0
O         2.8058766335    7.3442739201    3.4376711160	-1	 263	 264	 0	 0
O         3.9738766335    7.6772739201    5.7476711160	-1	 265	 264	 0	 0
O         6.2728766335    7.5512739201    7.0686711160	-1	 265	 111	 0	 0
O         5.4668766335    7.5622739201    3.5596711160	-1	 112	 264	 0	 0
O         3.9038766335    9.6712739201    3.9956711160	-1	 259	 264	 0	 0
O         1.7278766335   13.4072739201    1.3996711160	-1	 258	 256	 0	 0
O         2.0218766335   10.7962739201    1.0816711160	-1	 258	 251	 0	 0
O         2.2428766335    8.1392739201    0.9586711160	-1	 251	 263	 0	 0
O         6.4748766335   13.3432739201    1.7896711160	-1	 262	 255	 0	 0
O         6.4028766335   10.7352739201    1.2976711160	-1	 250	 262	 0	 0
O         6.1908766335    8.0912739201    1.0306711160	-1	 250	 112	 0	 0
O        10.5488766335   11.3462739201    3.9746711160	-1	 113	 109	 0	 0
Si        8.3478766335    1.5262739201    8.6356711160	-2	 185	 143	 686	 135
Si        6.0108766335    1.0132739201   10.6226711160	-2	 138	 685	 135	 136
Si        5.5838766335    1.9082739201    0.1336711160	-2	 137	 267	 700	 152
Si        2.4018766335    2.1762739201    0.0436711160	-2	 137	 1222	 150	 151
Si        3.5538766335    1.7782739201    8.8776711160	-2	 138	 1205	 125	 144
Si        8.9068766335   16.9392739201    9.3296711160	-2	 186	 139	 126	 1435
Si        6.5638766335   17.8252739201   11.1936711160	-2	 1210	 139	 140	 142
Si        5.8838766335   17.3302739201    0.6526711160	-2	 1434	 141	 269	 128
Si        2.7548766335   17.4052739201    0.5066711160	-2	 129	 1209	 141	 1223
Si        4.0688766335   17.1492739201    9.3286711160	-2	 1207	 142	 127	 1208
Si        1.6038766335    4.2842739201    2.1566711160	-2	 130	 131	 1214	 151
Si        3.8788766335    3.3082739201    4.0466711160	-2	 146	 130	 148	 149
Si        4.5628766335    3.9932739201    7.0326711160	-2	 146	 147	 154	 125
Si       14.6978766335   11.2622739201   13.3326711160	-23	 585	 172	 85	 158
Si       17.9058766335   11.2572739201   13.4496711160	-23	 586	 171	 84	 158
Si       18.8658766335   13.4382739201   11.4186711160	-2	 202	 171	 164	 175
Si       16.4848766335   12.7822739201    9.4986711160	-23	 169	 83	 164	 165
Si       15.8538766335   13.6892739201    6.5686711160	-2	 177	 163	 165	 166
Si       12.7468766335   13.7912739201    6.6946711160	-2	 162	 178	 166	 167
Si       11.7088766335   12.8142739201    9.5006711160	-2	 170	 174	 167	 168
Si       14.0348766335   13.5952739201   11.3486711160	-2	 169	 176	 172	 168
Si       18.9328766335   16.5032739201   11.4586711160	-2	 145	 179	 1423	 175
Si       16.6528766335   17.4542739201    9.6266711160	-2	 179	 180	 1215	 184
Si       15.9238766335   16.8832739201    6.6496711160	-2	 177	 180	 181	 1432
Si       12.8038766335   16.8742739201    6.7666711160	-2	 178	 1213	 181	 182
Si       11.8528766335   17.7662739201    9.6356711160	-2	 186	 182	 183	 1216
Si       14.1488766335   16.7032739201   11.3946711160	-2	 1217	 184	 183	 176
Si        8.6358766335    9.2652739201    8.8616711160	-2	 173	 187	 196	 197
Si        6.3248766335    9.8322739201   10.8796711160	-2	 195	 187	 188	 190
Si        5.8488766335    9.5312739201    0.3706711160	-2	 305	 218	 219	 189
Si        2.6418766335    9.5442739201    0.2596711160	-2	 1240	 189	 215	 216
Si        3.8268766335    9.3512739201    9.0846711160	-2	 1219	 190	 199	 200
Si        8.8078766335   13.8542739201    9.2376711160	-2	 126	 198	 191	 174
Si        6.4048766335   13.0372739201   11.0606711160	-2	 194	 195	 191	 192
Si        5.7788766335   14.1552739201    0.5716711160	-2	 193	 307	 217	 128
Si        2.6578766335   14.3452739201    0.4576711160	-2	 193	 129	 214	 1241
Si        3.9728766335   14.0262739201    9.2366711160	-2	 201	 194	 1221	 127
Si        1.8318766335   11.9832739201    2.1746711160	-2	 203	 1211	 214	 215
Si        4.1378766335   11.2712739201    4.1566711160	-2	 203	 204	 213	 208
Si        4.6478766335   11.8002739201    7.1496711160	-2	 201	 204	 205	 200
Si        7.8588766335   11.8272739201    7.0796711160	-2	 198	 197	 205	 206
Si        6.6638766335   11.8662739201    2.4286711160	-2	 217	 218	 207	 208
Si        1.6788766335    7.3652739201    2.2696711160	-2	 209	 131	 1212	 216
Si        4.0498766335    8.0652739201    4.1776711160	-2	 209	 210	 212	 213
Si        4.6948766335    7.1682739201    7.1106711160	-2	 210	 154	 199	 211
O         7.1828766335    2.0762739201   -3.7903288840	-1	 313	 312	 0	 0
O         6.3138766335    1.8552739201   -1.3153288840	-1	 313	 223	 0	 0
O         7.8108766335   17.3682739201   -2.9993288840	-1	 314	 315	 0	 0
O         6.6368766335   17.7932739201   -0.7063288840	-1	 315	 228	 0	 0
O         5.1808766335   17.8172739201   -2.9283288840	-1	 315	 316	 0	 0
O        19.8428766335    1.2082739201   -3.0303288840	-1	 327	 1080	 0	 0
O        20.3658766335   17.5672739201   -2.5373288840	-1	 331	 1084	 0	 0
O         9.2398766335   15.7632739201   -4.5413288840	-1	 337	 314	 0	 0
O         4.2108766335   15.9612739201   -4.5813288840	-1	 339	 316	 0	 0
O        16.3598766335   11.4462739201    0.0076711160	-1	 317	 318	 0	 0
O        16.4058766335    7.3782739201   -0.3073288840	-1	 114	 117	 0	 0
O        17.5398766335    9.1892739201   -3.0053288840	-1	 319	 320	 0	 0
O        12.4158766335    9.4332739201   -2.7473288840	-1	 321	 322	 0	 0
O        14.9468766335    9.5522739201   -3.4353288840	-1	 322	 320	 0	 0
O        17.7958766335   13.8362739201   -3.2123288840	-1	 323	 324	 0	 0
O        12.5868766335   13.6382739201   -2.6403288840	-1	 325	 326	 0	 0
O        15.1348766335   13.6652739201   -3.3393288840	-1	 324	 326	 0	 0
O        16.6598766335   11.5432739201   -3.7873288840	-1	 324	 320	 0	 0
O        12.0268766335   11.6042739201   -4.2613288840	-1	 321	 325	 0	 0
O        18.8528766335    7.7522739201   -1.2353288840	-1	 117	 319	 0	 0
O        18.6098766335   10.3652739201   -0.8203288840	-1	 318	 319	 0	 0
O        18.3708766335   13.0182739201   -0.7423288840	-1	 323	 318	 0	 0
O        14.1298766335    7.8122739201   -1.5893288840	-1	 322	 114	 0	 0
O        14.1698766335   10.4122739201   -1.0283288840	-1	 322	 317	 0	 0
O        14.4248766335   13.0592739201   -0.8163288840	-1	 317	 326	 0	 0
O        10.0758766335    9.8282739201   -3.7823288840	-1	 321	 335	 0	 0
O        10.1858766335   13.4332739201   -3.7003288840	-1	 337	 325	 0	 0
O        19.2808766335   15.3232739201   -1.6103288840	-1	 323	 331	 0	 0
O        14.2048766335   15.5082739201   -1.6543288840	-1	 334	 326	 0	 0
O        17.2618766335    1.6802739201   -3.2193288840	-1	 327	 328	 0	 0
O        12.1498766335    1.7892739201   -3.0203288840	-1	 329	 330	 0	 0
O        14.6598766335    1.4512739201   -3.7073288840	-1	 330	 328	 0	 0
O        17.9018766335   16.9182739201   -3.2123288840	-1	 331	 332	 0	 0
O        12.7228766335   17.5102739201   -2.5703288840	-1	 333	 334	 0	 0
O        15.2618766335   17.3162739201   -3.2973288840	-1	 332	 334	 0	 0
O        13.7978766335    0.5632739201   -1.3463288840	-1	 330	 815	 0	 0
O         9.7578766335    1.5692739201   -4.0003288840	-1	 329	 312	 0	 0
O        10.3198766335   17.9782739201   -3.5403288840	-1	 314	 333	 0	 0
O         7.4738766335    9.4902739201   -3.5513288840	-1	 335	 336	 0	 0
O         6.5658766335    9.6292739201   -1.0833288840	-1	 250	 336	 0	 0
O         7.7318766335   14.1542739201   -3.0733288840	-1	 337	 338	 0	 0
O         6.4768766335   13.7192739201   -0.8223288840	-1	 338	 255	 0	 0
O         5.0758766335   13.9492739201   -3.0593288840	-1	 338	 339	 0	 0
O         6.5928766335   11.8072739201   -2.6573288840	-1	 338	 336	 0	 0
O        20.1448766335    9.4602739201   -2.7753288840	-1	 1110	 319	 0	 0
O        20.2478766335   13.0712739201   -2.6463288840	-1	 1114	 323	 0	 0
Si        8.4068766335    1.8942739201   -4.8323288840	-2	 266	 1226	 302	 1312
Si        6.0698766335    1.3812739201   -2.8453288840	-2	 794	 267	 1430	 266
Si        8.9658766335   17.3062739201   -4.1383288840	-2	 273	 1227	 268	 303
Si        6.6228766335   18.1922739201   -2.2733288840	-2	 1225	 268	 269	 270
Si        4.1278766335   17.5162739201   -4.1393288840	-2	 274	 1228	 270	 1224
Si       14.7568766335   11.6302739201   -0.1353288840	-2	 289	 290	 275	 157
Si       17.9648766335   11.6252739201   -0.0183288840	-2	 275	 286	 159	 287
Si       18.7668766335    9.2102739201   -1.9483288840	-2	 286	 310	 285	 277
Si       16.4408766335    9.9472739201   -3.9263288840	-2	 283	 1229	 277	 279
Si       11.6628766335   10.0312739201   -4.0533288840	-2	 1230	 291	 284	 278
Si       13.9298766335    9.3032739201   -2.1873288840	-2	 289	 278	 279	 288
Si       18.9238766335   13.8052739201   -2.0493288840	-2	 311	 293	 287	 280
Si       16.5438766335   13.1502739201   -3.9693288840	-2	 282	 283	 1231	 280
Si       11.7678766335   13.1812739201   -3.9673288840	-2	 284	 281	 292	 1232
Si       14.0938766335   13.9632739201   -2.1193288840	-2	 281	 290	 294	 282
Si       18.4848766335    1.4672739201   -2.1733288840	-2	 1194	 806	 295	 271
Si       16.1398766335    0.9582739201   -4.1483288840	-2	 297	 804	 295	 1233
Si       11.3238766335    1.2772739201   -4.3183288840	-2	 1234	 805	 302	 296
Si       13.6658766335    1.7422739201   -2.4483288840	-2	 297	 1195	 301	 296
Si       18.9918766335   16.8702739201   -2.0083288840	-2	 298	 1436	 293	 272
Si       16.7118766335   17.8212739201   -3.8413288840	-2	 298	 1235	 300	 1237
Si       11.9118766335   18.1332739201   -3.8323288840	-2	 299	 1236	 1238	 303
Si       14.2078766335   17.0712739201   -2.0733288840	-2	 299	 300	 294	 1239
Si        8.6948766335    9.6322739201   -4.6063288840	-2	 1243	 291	 1244	 304
Si        6.3838766335   10.1992739201   -2.5883288840	-2	 305	 1429	 309	 304
Si        8.8668766335   14.2212739201   -4.2303288840	-2	 273	 306	 292	 1245
Si        6.4628766335   13.4052739201   -2.4073288840	-2	 306	 307	 308	 309
Si        4.0318766335   14.3932739201   -4.2313288840	-2	 1242	 308	 1246	 274
O        27.2678766335    0.9912739201    9.7456711160	-1	 485	 486	 0	 0
O        26.3988766335    0.7702739201   12.2206711160	-1	 977	 486	 0	 0
O        24.1248766335    1.1412739201   -0.0113288840	-1	 487	 488	 0	 0
O        21.8338766335    1.2272739201   12.1006711160	-1	 489	 978	 0	 0
O        22.1608766335    1.0112739201    9.4606711160	-1	 489	 490	 0	 0
O        24.6748766335    0.7862739201   10.2156711160	-1	 490	 486	 0	 0
O        27.8958766335   16.2842739201   10.5366711160	-1	 491	 492	 0	 0
O        26.7218766335   16.7092739201   12.8306711160	-1	 979	 492	 0	 0
O        24.4748766335   17.0962739201    0.6436711160	-1	 493	 494	 0	 0
O        22.3118766335   16.4532739201   12.5156711160	-1	 980	 495	 0	 0
O        22.7128766335   16.7892739201    9.9196711160	-1	 495	 496	 0	 0
O        25.2668766335   16.7332739201   10.6076711160	-1	 492	 496	 0	 0
O        28.6878766335    2.2082739201    7.8946711160	-1	 499	 485	 0	 0
O        23.9418766335    2.5422739201    8.3256711160	-1	 490	 498	 0	 0
O        23.9308766335   -0.0557260799    7.7966711160	-1	 490	 880	 0	 0
O        29.3258766335   14.6792739201    8.9946711160	-1	 546	 491	 0	 0
O        24.2968766335   14.8762739201    8.9556711160	-1	 551	 496	 0	 0
O        26.1368766335   15.0142739201    0.9086711160	-1	 548	 493	 0	 0
O        22.7008766335   15.1542739201    1.0656711160	-1	 549	 494	 0	 0
O        23.9728766335    2.9042739201    5.7036711160	-1	 497	 498	 0	 0
O        26.2538766335    2.7832739201    7.0516711160	-1	 498	 499	 0	 0
O        28.3168766335    3.1582739201    5.4296711160	-1	 499	 500	 0	 0
O        28.0348766335    2.9362739201    2.8126711160	-1	 500	 501	 0	 0
O        25.4898766335    2.9832739201    3.5246711160	-1	 497	 501	 0	 0
O        23.7278766335    1.0182739201    3.8506711160	-1	 497	 879	 0	 0
O        28.4068766335    0.7602739201    4.2986711160	-1	 882	 500	 0	 0
O        21.8278766335    0.2542739201    0.9226711160	-1	 878	 488	 0	 0
O        26.1608766335    2.5592739201    0.9576711160	-1	 501	 487	 0	 0
O        30.3938766335    2.4722739201    3.9196711160	-1	 524	 500	 0	 0
O        26.4678766335    4.9272739201    1.9876711160	-1	 562	 501	 0	 0
O        24.6118766335    4.8672739201    7.3696711160	-1	 498	 559	 0	 0
O        28.0178766335    4.7332739201    7.5246711160	-1	 499	 560	 0	 0
O        33.3058766335   10.9632739201    3.8726711160	-1	 502	 503	 0	 0
O        34.2148766335   10.8612739201    1.4016711160	-1	 1086	 503	 0	 0
O        36.4448766335   10.3612739201   13.5436711160	-1	 505	 504	 0	 0
O        35.8958766335   10.6282739201    3.4226711160	-1	 506	 503	 0	 0
O        33.0388766335    6.3042739201    3.3516711160	-1	 507	 508	 0	 0
O        34.2618766335    6.7542739201    1.0936711160	-1	 508	 1088	 0	 0
O        36.4908766335    6.2932739201   13.2286711160	-1	 509	 510	 0	 0
O        35.7058766335    6.5702739201    3.3086711160	-1	 508	 511	 0	 0
O        34.1538766335    8.6662739201    2.9316711160	-1	 508	 503	 0	 0
O        31.9598766335   12.1752739201    5.7836711160	-1	 521	 502	 0	 0
O        32.2128766335    9.5382739201    5.8886711160	-1	 515	 502	 0	 0
O        32.4648766335    6.8872739201    5.8776711160	-1	 507	 515	 0	 0
O        36.7238766335   12.2922739201    5.3546711160	-1	 506	 520	 0	 0
O        36.5508766335    9.7052739201    5.8386711160	-1	 506	 514	 0	 0
O        36.4968766335    7.0322739201    5.8426711160	-1	 514	 511	 0	 0
O        20.6028766335   11.0052739201    3.0636711160	-1	 118	 552	 0	 0
O        31.5948766335    4.6482739201    4.8476711160	-1	 507	 524	 0	 0
O        36.4828766335    4.6022739201    4.9736711160	-1	 563	 511	 0	 0
O        34.6948766335    4.3462739201   12.9206711160	-1	 509	 526	 0	 0
O        38.1278766335    4.2232739201   12.7436711160	-1	 510	 527	 0	 0
O        37.6248766335    8.1052739201   10.5316711160	-1	 513	 512	 0	 0
O        36.7338766335    8.3552739201    8.0846711160	-1	 513	 514	 0	 0
O        34.4358766335    8.4342739201    6.7656711160	-1	 514	 515	 0	 0
O        32.1948766335    8.1422739201    8.1466711160	-1	 515	 516	 0	 0
O        32.5008766335    8.3492739201   10.7886711160	-1	 516	 517	 0	 0
O        35.0328766335    8.4682739201   10.1006711160	-1	 513	 517	 0	 0
O        37.8808766335   12.7522739201   10.3246711160	-1	 518	 519	 0	 0
O        36.7128766335   12.4542739201    8.0006711160	-1	 519	 520	 0	 0
O        34.4278766335   12.5382739201    6.6686711160	-1	 521	 520	 0	 0
O        32.3618766335   12.9622739201    8.2936711160	-1	 521	 522	 0	 0
O        32.6728766335   12.5542739201   10.8966711160	-1	 522	 523	 0	 0
O        35.2208766335   12.5812739201   10.1966711160	-1	 523	 519	 0	 0
O        36.7458766335   10.4592739201    9.7496711160	-1	 513	 519	 0	 0
O        32.1118766335   10.5192739201    9.2746711160	-1	 522	 516	 0	 0
O        38.9388766335    6.6672739201   12.3006711160	-1	 510	 512	 0	 0
O        38.6948766335    9.2802739201   12.7156711160	-1	 505	 512	 0	 0
O        38.4558766335   11.9342739201   12.7946711160	-1	 505	 518	 0	 0
O        34.2148766335    6.7272739201   11.9476711160	-1	 509	 517	 0	 0
O        34.2548766335    9.3272739201   12.5076711160	-1	 517	 504	 0	 0
O        34.5098766335   11.9752739201   12.7206711160	-1	 523	 504	 0	 0
O        30.1608766335    8.7432739201    9.7536711160	-1	 540	 516	 0	 0
O        30.2708766335   12.3492739201    9.8356711160	-1	 546	 522	 0	 0
O        39.3658766335   14.2392739201   11.9256711160	-1	 534	 518	 0	 0
O        34.2898766335   14.4232739201   11.8816711160	-1	 523	 539	 0	 0
O        36.1608766335   14.5692739201    6.5046711160	-1	 536	 520	 0	 0
O        32.8058766335   14.6272739201    6.3036711160	-1	 521	 537	 0	 0
O        32.8358766335    3.0512739201    3.1416711160	-1	 524	 525	 0	 0
O        34.0568766335    2.5812739201    0.8946711160	-1	 1098	 525	 0	 0
O        36.3558766335    2.2702739201   13.1416711160	-1	 526	 527	 0	 0
O        35.4748766335    2.5812739201    3.1596711160	-1	 563	 525	 0	 0
O        33.7158766335    0.6322739201    2.6526711160	-1	 890	 525	 0	 0
O        31.8808766335   -0.3147260799    5.5806711160	-1	 889	 531	 0	 0
O        32.4128766335    2.2902739201    5.6716711160	-1	 531	 524	 0	 0
O        36.1748766335    2.0852739201    5.9506711160	-1	 530	 563	 0	 0
O        37.3468766335    0.5962739201   10.3176711160	-1	 529	 528	 0	 0
O        36.4928766335    0.3002739201    7.8516711160	-1	 529	 530	 0	 0
O        34.1438766335    0.5022739201    6.6546711160	-1	 530	 531	 0	 0
O        31.8558766335    0.9982739201    7.8816711160	-1	 531	 532	 0	 0
O        32.2348766335    0.7052739201   10.5156711160	-1	 532	 533	 0	 0
O        34.7448766335    0.3662739201    9.8296711160	-1	 529	 533	 0	 0
O        37.9878766335   15.8332739201   10.3236711160	-1	 534	 535	 0	 0
O        36.8348766335   16.6042739201    8.0826711160	-1	 535	 536	 0	 0
O        34.5088766335   16.6302739201    6.8116711160	-1	 537	 536	 0	 0
O        32.3838766335   16.2372739201    8.3546711160	-1	 537	 538	 0	 0
O        32.8078766335   16.4262739201   10.9666711160	-1	 538	 539	 0	 0
O        35.3468766335   16.2322739201   10.2386711160	-1	 539	 535	 0	 0
O        38.7748766335    1.7472739201   12.2176711160	-1	 527	 528	 0	 0
O        34.1098766335    2.0972739201   11.7376711160	-1	 533	 526	 0	 0
O        33.8828766335   -0.5217260799   12.1906711160	-1	 891	 533	 0	 0
O        29.8428766335    0.4842739201    9.5366711160	-1	 532	 485	 0	 0
O        30.4058766335   16.8932739201    9.9966711160	-1	 538	 491	 0	 0
O        27.5588766335    8.4062739201    9.9856711160	-1	 540	 541	 0	 0
O        26.6508766335    8.5452739201   12.4536711160	-1	 1003	 541	 0	 0
O        24.3918766335    8.9812739201    0.2596711160	-1	 542	 543	 0	 0
O        22.1048766335    8.4302739201   12.2986711160	-1	 1004	 544	 0	 0
O        22.4398766335    8.7472739201    9.6776711160	-1	 545	 544	 0	 0
O        24.9678766335    8.7472739201   10.4336711160	-1	 545	 541	 0	 0
O        27.8168766335   13.0692739201   10.4626711160	-1	 546	 547	 0	 0
O        26.5618766335   12.6352739201   12.7146711160	-1	 547	 1005	 0	 0
O        24.3338766335   13.0792739201    0.5866711160	-1	 548	 549	 0	 0
O        22.2238766335   13.2132739201   12.4576711160	-1	 1006	 550	 0	 0
O        22.6058766335   13.0252739201    9.8356711160	-1	 550	 551	 0	 0
O        25.1608766335   12.8652739201   10.4766711160	-1	 547	 551	 0	 0
O        26.6778766335   10.7232739201   10.8786711160	-1	 547	 541	 0	 0
O        22.0368766335   10.8552739201   11.2676711160	-1	 550	 544	 0	 0
O        28.8708766335    7.1782739201    8.0556711160	-1	 540	 560	 0	 0
O        28.5768766335    9.8122739201    7.9346711160	-1	 555	 540	 0	 0
O        28.3948766335   12.4732739201    7.9316711160	-1	 546	 555	 0	 0
O        24.1208766335    7.1872739201    8.4346711160	-1	 545	 559	 0	 0
O        24.2748766335    9.8182739201    8.0906711160	-1	 545	 554	 0	 0
O        24.3848766335   12.4772739201    7.9376711160	-1	 554	 551	 0	 0
O        23.2068766335   11.3282739201    3.2946711160	-1	 553	 552	 0	 0
O        24.0748766335   11.0262739201    5.7616711160	-1	 553	 554	 0	 0
O        26.3938766335   10.9862739201    7.0366711160	-1	 554	 555	 0	 0
O        28.6588766335   11.1812739201    5.6716711160	-1	 555	 556	 0	 0
O        28.3278766335   11.0182739201    3.0416711160	-1	 556	 557	 0	 0
O        25.7888766335   10.9352739201    3.7506711160	-1	 553	 557	 0	 0
O        22.9498766335    6.6272739201    3.5066711160	-1	 558	 119	 0	 0
O        24.1188766335    6.9602739201    5.8166711160	-1	 558	 559	 0	 0
O        26.4168766335    6.8342739201    7.1376711160	-1	 559	 560	 0	 0
O        28.4908766335    6.4052739201    5.5366711160	-1	 561	 560	 0	 0
O        28.1598766335    6.7562739201    2.9336711160	-1	 561	 562	 0	 0
O        25.6108766335    6.8452739201    3.6276711160	-1	 562	 558	 0	 0
O        24.0478766335    8.9542739201    4.0636711160	-1	 553	 558	 0	 0
O        28.7578766335    8.8222739201    4.4976711160	-1	 561	 556	 0	 0
O        21.8718766335   12.6902739201    1.4686711160	-1	 549	 552	 0	 0
O        22.1658766335   10.0792739201    1.1496711160	-1	 543	 552	 0	 0
O        22.3868766335    7.4222739201    1.0276711160	-1	 119	 543	 0	 0
O        26.6188766335   12.6262739201    1.8586711160	-1	 548	 557	 0	 0
O        26.5468766335   10.0182739201    1.3656711160	-1	 557	 542	 0	 0
O        26.3348766335    7.3742739201    1.0996711160	-1	 562	 542	 0	 0
O        30.6928766335   10.6292739201    4.0436711160	-1	 556	 502	 0	 0
O        30.5748766335    6.9532739201    3.9786711160	-1	 561	 507	 0	 0
Si       28.4918766335    0.8092739201    8.7036711160	-2	 441	 340	 829	 352
Si       26.1548766335    0.2962739201   10.6916711160	-2	 345	 827	 340	 341
Si       25.7278766335    1.1912739201    0.2016711160	-2	 842	 1021	 342	 367
Si       22.5458766335    1.4592739201    0.1126711160	-2	 1022	 1197	 342	 366
Si       21.3358766335    0.4742739201   10.7516711160	-23	 81	 828	 343	 344
Si       23.6978766335    1.0612739201    8.9456711160	-2	 345	 354	 353	 344
Si       29.0508766335   16.2222739201    9.3976711160	-2	 346	 355	 442	 1437
Si       26.7088766335   17.1082739201   11.2626711160	-2	 346	 347	 1247	 351
Si       26.0278766335   16.6132739201    0.7206711160	-2	 1433	 1026	 348	 357
Si       22.8998766335   16.6882739201    0.5756711160	-2	 1027	 348	 358	 1252
Si       21.8978766335   17.3342739201   11.2176711160	-2	 145	 349	 350	 1248
Si       24.2128766335   16.4322739201    9.3976711160	-2	 1249	 356	 350	 351
Si       24.0228766335    2.5912739201    4.1156711160	-2	 364	 363	 1196	 359
Si       24.7068766335    3.2762739201    7.1006711160	-2	 353	 370	 359	 360
Si       27.8228766335    3.2172739201    6.9696711160	-2	 361	 371	 352	 360
Si       28.7978766335    2.3292739201    4.1186711160	-2	 361	 362	 365	 368
Si       26.5368766335    3.3442739201    2.3256711160	-2	 369	 362	 363	 367
Si       32.0608766335   10.8142739201    4.8966711160	-2	 483	 372	 381	 382
Si       34.3998766335   10.2692739201    2.8996711160	-2	 372	 380	 373	 375
Si       34.8418766335   10.5452739201   13.4006711160	-2	 410	 411	 374	 923
Si       38.0508766335   10.5402739201   13.5176711160	-2	 1343	 374	 407	 408
Si       36.8828766335   10.8142739201    4.7036711160	-2	 385	 1254	 375	 384
Si       31.9148766335    6.1982739201    4.5126711160	-2	 388	 376	 383	 484
Si       34.2958766335    7.0682739201    2.6786711160	-2	 377	 379	 380	 376
Si       34.9028766335    5.9232739201   13.1766711160	-2	 409	 378	 390	 926
Si       38.0228766335    5.7482739201   13.2856711160	-2	 1345	 378	 406	 391
Si       36.7128766335    6.1082739201    4.5066711160	-2	 386	 379	 389	 1256
Si       38.8518766335    8.1252739201   11.5876711160	-2	 1263	 406	 407	 392
Si       36.5258766335    8.8632739201    9.6096711160	-2	 393	 404	 397	 392
Si       36.0438766335    8.3792739201    6.6136711160	-2	 385	 386	 394	 393
Si       32.8318766335    8.2552739201    6.6626711160	-2	 394	 395	 382	 383
Si       31.7488766335    8.9472739201    9.4836711160	-2	 395	 396	 405	 412
Si       34.0148766335    8.2182739201   11.3486711160	-2	 409	 410	 396	 397
Si       39.0098766335   12.7212739201   11.4866711160	-2	 1264	 398	 414	 408
Si       36.6288766335   12.0652739201    9.5666711160	-2	 403	 404	 398	 399
Si       35.9978766335   12.9722739201    6.6376711160	-2	 416	 384	 399	 400
Si       32.8908766335   13.0742739201    6.7626711160	-2	 417	 381	 401	 400
Si       31.8528766335   12.0972739201    9.5686711160	-2	 401	 402	 405	 413
Si       34.1788766335   12.8782739201   11.4166711160	-2	 402	 403	 415	 411
Si       31.8188766335    3.1022739201    4.3936711160	-2	 418	 388	 424	 368
Si       34.0798766335    2.2172739201    2.4846711160	-2	 418	 419	 421	 422
Si       34.7948766335    2.7372739201   13.0636711160	-2	 420	 390	 439	 944
Si       37.9248766335    2.6832739201   13.2406711160	-2	 1351	 420	 438	 391
Si       38.5698766335    0.3832739201   11.3636711160	-2	 426	 867	 1250	 438
Si       36.2248766335   -0.1267260799    9.3886711160	-2	 865	 426	 427	 431
Si       35.7518766335    0.6082739201    6.4256711160	-2	 425	 858	 427	 428
Si       32.5848766335    0.8672739201    6.4356711160	-2	 428	 429	 423	 424
Si       31.4088766335    0.1922739201    9.2176711160	-2	 441	 866	 429	 430
Si       33.7518766335    0.6572739201   11.0876711160	-2	 431	 430	 439	 440
Si       39.0778766335   15.7862739201   11.5276711160	-2	 1425	 1251	 414	 432
Si       36.7968766335   16.7372739201    9.6946711160	-2	 433	 1260	 437	 432
Si       36.0688766335   16.1672739201    6.7176711160	-2	 433	 434	 1443	 416
Si       32.9478766335   16.1572739201    6.8356711160	-2	 417	 434	 435	 1259
Si       31.9968766335   17.0492739201    9.7046711160	-2	 442	 435	 436	 1261
Si       34.2928766335   15.9862739201   11.4636711160	-2	 436	 437	 1262	 415
Si       28.7798766335    8.5482739201    8.9306711160	-2	 457	 458	 443	 412
Si       26.4688766335    9.1152739201   10.9486711160	-2	 443	 444	 455	 448
Si       25.9928766335    8.8142739201    0.4386711160	-2	 481	 482	 1067	 445
Si       22.7858766335    8.8272739201    0.3286711160	-2	 1068	 445	 478	 479
Si       21.6698766335    9.2962739201   10.9986711160	-23	 456	 446	 447	 88
Si       23.9718766335    8.6342739201    9.1536711160	-2	 460	 461	 447	 448
Si       28.9518766335   13.1372739201    9.3066711160	-2	 449	 459	 413	 355
Si       26.5488766335   12.3202739201   11.1296711160	-2	 449	 450	 454	 455
Si       25.9228766335   13.4382739201    0.6396711160	-2	 451	 357	 1072	 480
Si       22.8018766335   13.6282739201    0.5266711160	-2	 1073	 451	 477	 358
Si       21.7658766335   12.4502739201   11.1026711160	-2	 202	 452	 453	 456
Si       24.1168766335   13.3092739201    9.3046711160	-2	 454	 356	 453	 462
Si       21.9758766335   11.2662739201    2.2426711160	-2	 387	 477	 478	 463
Si       24.2818766335   10.5542739201    4.2256711160	-2	 475	 468	 463	 464
Si       24.7918766335   11.0832739201    7.2186711160	-2	 465	 461	 462	 464
Si       28.0028766335   11.1102739201    7.1476711160	-2	 465	 458	 459	 466
Si       29.1108766335   10.3992739201    4.3206711160	-2	 483	 466	 467	 476
Si       26.8078766335   11.1492739201    2.4966711160	-2	 481	 467	 468	 480
Si       24.1938766335    7.3492739201    4.2456711160	-2	 474	 475	 469	 470
Si       24.8388766335    6.4512739201    7.1796711160	-2	 370	 460	 470	 471
Si       27.9538766335    6.2872739201    7.0596711160	-2	 457	 371	 471	 472
Si       29.0008766335    7.2382739201    4.2396711160	-2	 473	 476	 484	 472
Si       26.6428766335    6.4762739201    2.4166711160	-2	 369	 474	 482	 473
Si       36.5828766335    2.9272739201    4.4466711160	-2	 425	 389	 421	 1258
O         3.9218766335    1.4912739201   13.3876711160	-1	 637	 638	 0	 0
O         4.2718766335   17.4462739201   14.0426711160	-1	 639	 640	 0	 0
O         5.9338766335   15.3632739201   14.3086711160	-1	 666	 639	 0	 0
O         2.4978766335   15.5032739201   14.4656711160	-1	 667	 640	 0	 0
O         2.6658766335    3.8222739201   16.8026711160	-1	 641	 642	 0	 0
O         3.7688766335    3.2532739201   19.1036711160	-1	 642	 643	 0	 0
O         6.0508766335    3.1322739201   20.4506711160	-1	 643	 644	 0	 0
O         8.1138766335    3.5072739201   18.8296711160	-1	 644	 645	 0	 0
O         7.8318766335    3.2862739201   16.2116711160	-1	 645	 646	 0	 0
O         5.2868766335    3.3322739201   16.9246711160	-1	 642	 646	 0	 0
O         3.5248766335    1.3672739201   17.2496711160	-1	 777	 642	 0	 0
O         8.2038766335    1.1102739201   17.6976711160	-1	 780	 645	 0	 0
O         1.6248766335    0.6042739201   14.3216711160	-1	 638	 776	 0	 0
O         2.1218766335    3.2282739201   14.2656711160	-1	 641	 638	 0	 0
O         5.9578766335    2.9092739201   14.3566711160	-1	 637	 646	 0	 0
O        10.1908766335    2.8212739201   17.3186711160	-1	 659	 645	 0	 0
O         1.2618766335    5.4822739201   15.3016711160	-1	 641	 674	 0	 0
O         6.2648766335    5.2772739201   15.3866711160	-1	 646	 679	 0	 0
O         4.4088766335    5.2162739201   20.7696711160	-1	 643	 676	 0	 0
O         7.8148766335    5.0832739201   20.9236711160	-1	 644	 677	 0	 0
O        13.1028766335   11.3132739201   17.2726711160	-1	 647	 648	 0	 0
O        14.0118766335   11.2102739201   14.8006711160	-1	 234	 648	 0	 0
O        18.4968766335   11.3062739201   14.9556711160	-1	 649	 235	 0	 0
O        18.2048766335   10.9852739201   17.5876711160	-1	 649	 650	 0	 0
O        15.6928766335   10.9782739201   16.8226711160	-1	 650	 648	 0	 0
O        12.8358766335    6.6542739201   16.7506711160	-1	 651	 652	 0	 0
O        18.0378766335    6.6972739201   17.3746711160	-1	 653	 654	 0	 0
O        15.5028766335    6.9202739201   16.7076711160	-1	 652	 654	 0	 0
O        13.9508766335    9.0152739201   16.3306711160	-1	 652	 648	 0	 0
O        18.5948766335    8.8842739201   15.9756711160	-1	 649	 653	 0	 0
O        11.7568766335   12.5242739201   19.1836711160	-1	 658	 647	 0	 0
O        12.0098766335    9.8882739201   19.2886711160	-1	 647	 656	 0	 0
O        12.2618766335    7.2362739201   19.2776711160	-1	 651	 656	 0	 0
O        16.5208766335   12.6412739201   18.7536711160	-1	 657	 650	 0	 0
O        16.3478766335   10.0552739201   19.2376711160	-1	 650	 655	 0	 0
O        16.2938766335    7.3822739201   19.2416711160	-1	 654	 655	 0	 0
O        11.3918766335    4.9972739201   18.2466711160	-1	 651	 659	 0	 0
O        16.2798766335    4.9512739201   18.3726711160	-1	 654	 680	 0	 0
O        14.2328766335    8.7842739201   20.1656711160	-1	 655	 656	 0	 0
O        14.2248766335   12.8882739201   20.0686711160	-1	 657	 658	 0	 0
O        12.6328766335    3.4002739201   16.5416711160	-1	 659	 660	 0	 0
O        17.9968766335    2.8922739201   17.3236711160	-1	 661	 680	 0	 0
O        15.2718766335    2.9302739201   16.5586711160	-1	 660	 680	 0	 0
O        13.5128766335    0.9812739201   16.0516711160	-1	 785	 660	 0	 0
O        18.3388766335    0.8172739201   15.6486711160	-1	 786	 661	 0	 0
O        11.6768766335    0.0342739201   18.9796711160	-1	 663	 784	 0	 0
O        12.2098766335    2.6392739201   19.0706711160	-1	 659	 663	 0	 0
O        15.9718766335    2.4342739201   19.3496711160	-1	 662	 680	 0	 0
O        13.9408766335    0.8512739201   20.0536711160	-1	 662	 663	 0	 0
O         4.1888766335    9.3312739201   13.6586711160	-1	 665	 664	 0	 0
O         4.1308766335   13.4282739201   13.9856711160	-1	 666	 667	 0	 0
O         3.0038766335   11.6772739201   16.6936711160	-1	 668	 669	 0	 0
O         3.8718766335   11.3752739201   19.1616711160	-1	 669	 670	 0	 0
O         6.1908766335   11.3352739201   20.4356711160	-1	 670	 671	 0	 0
O         8.4558766335   11.5302739201   19.0706711160	-1	 671	 672	 0	 0
O         8.1248766335   11.3672739201   16.4406711160	-1	 673	 672	 0	 0
O         5.5858766335   11.2852739201   17.1496711160	-1	 673	 669	 0	 0
O         2.7468766335    6.9772739201   16.9056711160	-1	 674	 675	 0	 0
O         3.9148766335    7.3092739201   19.2156711160	-1	 675	 676	 0	 0
O         6.2138766335    7.1832739201   20.5366711160	-1	 676	 677	 0	 0
O         8.2868766335    6.7542739201   18.9356711160	-1	 677	 678	 0	 0
O         7.9568766335    7.1062739201   16.3326711160	-1	 678	 679	 0	 0
O         5.4078766335    7.1942739201   17.0276711160	-1	 675	 679	 0	 0
O         3.8448766335    9.3042739201   17.4626711160	-1	 675	 669	 0	 0
O         8.5548766335    9.1722739201   17.8976711160	-1	 678	 672	 0	 0
O         1.6688766335   13.0402739201   14.8676711160	-1	 667	 668	 0	 0
O         1.9628766335   10.4292739201   14.5496711160	-1	 665	 668	 0	 0
O         2.1838766335    7.7712739201   14.4266711160	-1	 665	 674	 0	 0
O         6.4158766335   12.9762739201   15.2576711160	-1	 673	 666	 0	 0
O         6.3438766335   10.3672739201   14.7646711160	-1	 673	 664	 0	 0
O         6.1318766335    7.7232739201   14.4986711160	-1	 679	 664	 0	 0
O        10.4898766335   10.9782739201   17.4426711160	-1	 647	 672	 0	 0
O        10.3718766335    7.3032739201   17.3776711160	-1	 651	 678	 0	 0
Si        5.5248766335    1.5402739201   13.6016711160	-2	 578	 564	 759	 136
Si        2.3428766335    1.8092739201   13.5116711160	-2	 577	 564	 1204	 576
Si        5.8248766335   16.9632739201   14.1206711160	-2	 1421	 140	 565	 566
Si        2.6968766335   17.0382739201   13.9746711160	-2	 1268	 565	 1206	 567
Si        1.5448766335    3.9162739201   15.6246711160	-2	 577	 1275	 580	 568
Si        3.8198766335    2.9412739201   17.5146711160	-2	 569	 573	 574	 568
Si        4.5038766335    3.6252739201   20.5006711160	-2	 569	 570	 1266	 582
Si        7.6198766335    3.5662739201   20.3696711160	-2	 1265	 570	 571	 583
Si        8.5948766335    2.6782739201   17.5186711160	-2	 571	 572	 579	 575
Si        6.3338766335    3.6942739201   15.7256711160	-2	 578	 572	 573	 581
Si       11.8578766335   11.1642739201   18.2966711160	-2	 594	 635	 595	 584
Si       14.1968766335   10.6182739201   16.2986711160	-2	 585	 588	 592	 584
Si       18.9568766335   10.4442739201   16.2556711160	-2	 593	 586	 587	 935
Si       16.6788766335   11.1632739201   18.1036711160	-2	 587	 588	 597	 598
Si       11.7118766335    6.5482739201   17.9116711160	-2	 596	 636	 589	 600
Si       14.0918766335    7.4172739201   16.0776711160	-23	 89	 589	 591	 592
Si       18.8678766335    7.2892739201   16.1136711160	-23	 593	 90	 590	 936
Si       16.5098766335    6.4582739201   17.9056711160	-2	 601	 599	 590	 591
Si       15.8408766335    8.7292739201   20.0126711160	-2	 1271	 602	 598	 599
Si       12.6288766335    8.6042739201   20.0626711160	-2	 602	 595	 596	 1272
Si       15.7948766335   13.3212739201   20.0366711160	-2	 1273	 603	 1420	 597
Si       12.6878766335   13.4232739201   20.1626711160	-2	 594	 1419	 1274	 603
Si       11.6158766335    3.4512739201   17.7926711160	-2	 610	 579	 604	 600
Si       13.8758766335    2.5672739201   15.8836711160	-23	 91	 604	 606	 607
Si       18.7188766335    2.3722739201   16.0016711160	-23	 92	 605	 950	 608
Si       15.5488766335    0.9582739201   19.8246711160	-2	 771	 611	 612	 1276
Si       12.3818766335    1.2172739201   19.8346711160	-2	 609	 610	 612	 1277
Si        5.7898766335    9.1632739201   13.8386711160	-2	 633	 634	 188	 613
Si        2.5828766335    9.1772739201   13.7276711160	-2	 1218	 613	 630	 631
Si        5.7198766335   13.7882739201   14.0396711160	-2	 566	 632	 614	 192
Si        2.5988766335   13.9782739201   13.9256711160	-2	 1220	 629	 614	 567
Si        1.7728766335   11.6152739201   15.6426711160	-2	 629	 1269	 630	 615
Si        4.0788766335   10.9042739201   17.6246711160	-2	 627	 620	 615	 616
Si        4.5888766335   11.4322739201   20.6176711160	-2	 617	 1282	 1283	 616
Si        7.7998766335   11.4592739201   20.5476711160	-2	 617	 618	 1279	 1280
Si        8.9078766335   10.7492739201   17.7196711160	-2	 618	 619	 628	 635
Si        6.6048766335   11.4982739201   15.8966711160	-2	 633	 619	 620	 632
Si        1.6198766335    6.9982739201   15.7376711160	-2	 580	 621	 1270	 631
Si        3.9908766335    7.6982739201   17.6446711160	-2	 626	 627	 621	 622
Si        4.6358766335    6.8012739201   20.5786711160	-2	 1281	 582	 622	 623
Si        7.7508766335    6.6362739201   20.4586711160	-2	 583	 1278	 623	 624
Si        8.7978766335    7.5882739201   17.6386711160	-2	 625	 636	 628	 624
Si        6.4398766335    6.8252739201   15.8166711160	-2	 625	 634	 581	 626
Si       16.3798766335    3.2772739201   17.8456711160	-2	 601	 611	 605	 606
O         7.0418766335   -3.0117260799    9.9196711160	-1	 723	 724	 0	 0
O         5.8678766335   -2.5867260799   12.2126711160	-1	 724	 774	 0	 0
O         3.6198766335   -2.1997260799    0.0256711160	-1	 725	 726	 0	 0
O         4.4118766335   -2.5627260799    9.9896711160	-1	 724	 727	 0	 0
O         6.1278766335   -0.5977260799   10.4696711160	-1	 724	 222	 0	 0
O         8.0778766335    0.3292739201    7.5736711160	-1	 731	 221	 0	 0
O         7.6958766335   -2.3017260799    7.4426711160	-1	 731	 723	 0	 0
O         3.6978766335   -1.9887260799    7.4616711160	-1	 730	 727	 0	 0
O        19.5958766335   -2.8137260799   10.3816711160	-1	 876	 740	 0	 0
O         5.2818766335   -4.2817260799    0.2916711160	-1	 746	 725	 0	 0
O         1.8468766335   -4.1417260799    0.4476711160	-1	 747	 726	 0	 0
O         2.6058766335   -0.5367260799    2.8776711160	-1	 729	 728	 0	 0
O         3.4958766335   -0.4317260799    5.3526711160	-1	 729	 730	 0	 0
O         5.8098766335   -0.6207260799    6.6286711160	-1	 730	 731	 0	 0
O         8.0398766335   -0.9427260799    5.2436711160	-1	 731	 124	 0	 0
O         7.7208766335   -0.5937260799    2.6236711160	-1	 124	 732	 0	 0
O         5.2068766335   -0.3237260799    3.3446711160	-1	 729	 732	 0	 0
O         1.1998766335   -1.6337260799    0.9326711160	-1	 726	 728	 0	 0
O         5.8898766335   -2.0017260799    1.3856711160	-1	 732	 725	 0	 0
O         6.0408766335    0.6152739201    0.9896711160	-1	 732	 223	 0	 0
O        10.0888766335   -0.4077260799    3.6326711160	-1	 124	 120	 0	 0
O        17.0258766335   -6.5437260799    9.7066711160	-1	 733	 734	 0	 0
O        15.8578766335   -6.8417260799    7.3836711160	-1	 734	 735	 0	 0
O        13.5728766335   -6.7567260799    6.0516711160	-1	 735	 736	 0	 0
O        14.3658766335   -6.7147260799    9.5796711160	-1	 737	 734	 0	 0
O        18.5118766335   -5.0567260799   11.3086711160	-1	 740	 733	 0	 0
O        13.4348766335   -4.8727260799   11.2636711160	-1	 737	 745	 0	 0
O        15.3068766335   -4.7267260799    5.8866711160	-1	 742	 735	 0	 0
O        11.9518766335   -4.6687260799    5.6856711160	-1	 743	 736	 0	 0
O        15.8518766335   -1.0207260799   13.1456711160	-1	 738	 739	 0	 0
O        11.2268766335   -2.1787260799    5.2396711160	-1	 743	 120	 0	 0
O        17.1328766335   -3.4627260799    9.7056711160	-1	 740	 741	 0	 0
O        15.9798766335   -2.6917260799    7.4656711160	-1	 741	 742	 0	 0
O        13.6538766335   -2.6657260799    6.1946711160	-1	 742	 743	 0	 0
O        11.5298766335   -3.0587260799    7.7366711160	-1	 743	 744	 0	 0
O        11.9538766335   -2.8697260799   10.3486711160	-1	 745	 744	 0	 0
O        14.4928766335   -3.0637260799    9.6216711160	-1	 745	 741	 0	 0
O        11.5218766335   -0.6797260799    8.9036711160	-1	 121	 744	 0	 0
O        17.6488766335   -2.7567260799   12.2286711160	-1	 739	 740	 0	 0
O        13.8608766335   -2.4677260799   12.1586711160	-1	 745	 738	 0	 0
O         9.5508766335   -2.4027260799    9.3786711160	-1	 723	 744	 0	 0
O         3.4798766335   -6.2167260799   -0.0313288840	-1	 746	 747	 0	 0
Si        8.1958766335   -3.0737260799    8.7806711160	-2	 681	 1440	 687	 721
Si        5.8538766335   -2.1877260799   10.6446711160	-2	 681	 682	 684	 685
Si        5.1738766335   -2.6817260799    0.1036711160	-2	 793	 690	 683	 699
Si        2.0448766335   -2.6067260799   -0.0423288840	-2	 683	 698	 691	 1311
Si        3.3588766335   -2.8637260799    8.7796711160	-2	 684	 1285	 1439	 688
Si        1.3938766335   -0.2917260799    1.8306711160	-2	 698	 692	 1293	 150
Si        3.7258766335    0.1172739201    3.8456711160	-2	 697	 149	 692	 693
Si        4.2058766335   -0.6007260799    6.8006711160	-2	 688	 693	 694	 144
Si        7.4028766335   -0.8777260799    6.7276711160	-2	 695	 694	 687	 686
Si        6.2008766335   -0.5717260799    2.0796711160	-2	 697	 699	 700	 696
Si       18.1548766335   -6.5747260799   10.8686711160	-2	 706	 1291	 702	 1296
Si       15.7748766335   -7.2297260799    8.9486711160	-2	 705	 1290	 702	 703
Si       15.1438766335   -6.3237260799    6.0196711160	-2	 708	 1287	 703	 704
Si       12.0368766335   -6.2217260799    6.1446711160	-2	 709	 1286	 1288	 704
[...]
 1151      Si     31.5318766335    -1.8627260799    17.9746711160
 1152      Si     33.8498766335    -1.3317260799    15.9856711160
 1153      Si     36.3258766335    -2.0517260799    17.7266711160
 1154      Si     35.2988766335    -4.2137260799    19.6366711160
 1155      Si     32.1778766335    -4.2227260799    19.7536711160
 1156      Si     25.1528766335    -6.9417260799    13.5586711160
 1157      Si     22.0328766335    -6.7517260799    13.4456711160
 1158      O      27.2448766335    -3.3617260799    -3.4803288840
 1159      O      26.0708766335    -2.9357260799    -1.1863288840
 1160      O      21.6608766335    -3.1927260799    -1.5013288840
 1161      O      22.0618766335    -2.8557260799    -4.0973288840
 1162      O      24.6148766335    -2.9127260799    -3.4093288840
 1163      O      26.3308766335    -0.9477260799    -2.9303288840
 1164      O      21.6178766335    -0.7547260799    -2.5243288840
 1165      O      37.2288766335    -6.8927260799    -3.6923288840
 1166      O      34.5688766335    -7.0647260799    -3.8203288840
 1167      O      38.7148766335    -5.4057260799    -2.0913288840
 1168      O      33.6378766335    -5.2217260799    -2.1353288840
 1169      O      36.0548766335    -1.3697260799    -0.2543288840
 1170      O      37.3358766335    -3.8117260799    -3.6933288840
 1171      O      32.1568766335    -3.2187260799    -3.0503288840
 1172      O      34.6958766335    -3.4137260799    -3.7783288840
 1173      O      36.4058766335    -1.3677260799    -3.8713288840
 1174      O      31.7248766335    -1.0287260799    -4.4953288840
 1175      O      38.3908766335    -0.5037260799    -1.1123288840
 1176      O      37.8518766335    -3.1067260799    -1.1703288840
 1177      O      34.0638766335    -2.8167260799    -1.2403288840
 1178      O      29.7538766335    -2.7517260799    -4.0203288840
 1179      Si     28.3988766335    -3.4227260799    -4.6193288840
 1180      Si     26.0568766335    -2.5377260799    -2.7543288840
 1181      Si     21.2458766335    -2.3107260799    -2.7993288840
 1182      Si     23.5618766335    -3.2137260799    -4.6193288840
 1183      Si     38.3578766335    -6.9237260799    -2.5303288840
 1184      Si     35.9778766335    -7.5797260799    -4.4503288840
 1185      Si     33.5278766335    -6.7667260799    -2.6003288840
 1186      Si     34.4468766335    -1.4527260799    -0.4543288840
 1187      Si     37.6308766335    -1.7217260799    -0.3503288840
 1188      Si     38.4258766335    -3.8597260799    -2.4893288840
 1189      Si     36.1458766335    -2.9087260799    -4.3223288840
 1190      Si     31.3458766335    -2.5957260799    -4.3123288840
 1191      Si     33.6408766335    -3.6587260799    -2.5533288840
 1192      O      14.6098766335     5.4312739201    -0.6153288840
 1193      O      18.0418766335     5.3082739201    -0.7923288840
 1194      O      18.6888766335     2.8322739201    -1.3183288840
 1195      O      14.0248766335     3.1822739201    -1.7983288840
 1196      O      22.8688766335     3.4732739201     3.4026711160
 1197      O      22.3248766335     2.8792739201     0.8666711160
 1198      O      21.4408766335     5.0112739201     1.8976711160
 1199      O      12.6558766335    -0.9807260799     3.3816711160
 1200      O      13.5628766335    -0.7507260799     0.9176711160
 1201      O      18.1318766335    -1.1897260799     1.0506711160
 1202      O      15.9328766335    -2.4247260799     4.8376711160
 1203      O      20.1678766335    -0.7477260799     2.7196711160
 1204      H       1.6898766335     1.9442739201    12.0316711160
 1205      H       2.0168766335     1.7282739201     9.3926711160
 1206      H       2.1678766335    17.1702739201    12.4476711160
 1207      H       2.5688766335    17.5062739201     9.8516711160
 1208      H       4.4078766335    18.0242739201     8.0106711160
 1209      H       1.9098766335    18.3792739201     1.4816711160
 1210      H       6.8388766335    19.4142739201    11.0186711160
 1211      H       0.4588766335    11.7222739201     2.9946711160
 1212      H       0.3608766335     8.1112739201     2.8616711160
 1213      H      11.9378766335    17.8332739201     5.7886711160
 1214      H       0.2598766335     3.5442739201     2.6566711160
 1215      H      16.9128766335    18.9952739201    10.0766711160
 1216      H      12.2328766335    19.3332739201     9.4536711160
 1217      H      14.5708766335    17.5452739201    12.7076711160
 1218      H       1.9608766335     9.1472739201    12.2306711160
 1219      H       2.2958766335     9.4642739201     9.6086711160
 1220      H       2.0798766335    13.9302739201    12.3886711160
 1221      H       2.4608766335    13.7422739201     9.7676711160
 1222      H       1.7488766335     2.3112739201    -1.4363288840
 1223      H       2.2268766335    17.5372739201    -1.0203288840
 1224      H       2.6278766335    17.8732739201    -3.6163288840
 1225      H       6.8978766335    19.7822739201    -2.4493288840
 1226      H       8.6028766335     3.2922739201    -5.6423288840
 1227      H       8.4648766335    18.0792739201    -5.4763288840
 1228      H       4.4668766335    18.3912739201    -5.4573288840
 1229      H      16.6488766335     9.4392739201    -5.4523288840
 1230      H      12.1098766335     9.2262739201    -5.3893288840
 1231      H      16.6268766335    13.5382739201    -5.5353288840
 1232      H      12.2768766335    14.0462739201    -5.2423288840
 1233      H      16.4068766335     1.3842739201    -5.6843288840
 1234      H      11.7708766335     2.0822739201    -5.6553288840
 1235      H      16.7498766335    17.6892739201    -5.4533288840
 1236      H      12.2988766335    17.3222739201    -5.1823288840
 1237      H      16.9718766335    19.3622739201    -3.3913288840
 1238      H      12.2918766335    19.7002739201    -4.0143288840
 1239      H      14.6298766335    17.9132739201    -0.7603288840
 1240      H       2.0198766335     9.5142739201    -1.2373288840
 1241      H       2.1388766335    14.2982739201    -1.0793288840
 1242      H       2.5198766335    14.1102739201    -3.7003288840
 1243      H       8.7848766335     8.2632739201    -5.4803288840
 1244      H       8.4908766335    10.8962739201    -5.6023288840
 1245      H       8.3098766335    13.5572739201    -5.6053288840
 1246      H       4.2988766335    13.5612739201    -5.5983288840
 1247      H      26.9828766335    18.6982739201    11.0866711160
 1248      H      22.2688766335    18.8912739201    11.4926711160
 1249      H      24.5518766335    17.3072739201     8.0796711160
 1250      H      39.9288766335     0.1242739201    10.5056711160
 1251      H      40.4508766335    16.4822739201    10.9996711160
 1252      H      22.0538766335    17.6622739201     1.5506711160
 1253      H      38.6998766335    10.9572739201     1.5566711160
 1254      H      38.4078766335    10.6352739201     4.1886711160
 1255      H      38.6308766335     6.1992739201     1.3396711160
 1256      H      38.2408766335     6.3482739201     3.9756711160
 1257      H      38.5258766335     2.9162739201     1.2856711160
 1258      H      38.1998766335     2.5432739201     3.9246711160
 1259      H      32.0818766335    17.1162739201     5.8576711160
 1260      H      37.0578766335    18.2782739201    10.1456711160
 1261      H      32.3768766335    18.6162739201     9.5216711160
 1262      H      34.7158766335    16.8282739201    12.7766711160
 1263      H      40.2298766335     8.3752739201    10.7616711160
 1264      H      40.3328766335    11.9872739201    10.8906711160
 1265      H       8.4848766335     2.5572739201    21.2936711160
 1266      H       3.7388766335     2.8912739201    21.7256711160
 1267      H       3.7278766335     0.2942739201    21.1966711160
 1268      H       1.8508766335    18.0112739201    14.9496711160
 1269      H       0.3998766335    11.3542739201    16.4626711160
 1270      H       0.3018766335     7.7442739201    16.3296711160
 1271      H      16.5308766335     8.7042739201    21.4836711160
 1272      H      11.9918766335     8.4912739201    21.5456711160
 1273      H      16.5088766335    12.8032739201    21.4006711160
 1274      H      12.1588766335    13.3112739201    21.6936711160
 1275      H       0.2008766335     3.1772739201    16.1246711160
 1276      H      16.2898766335     0.6492739201    21.2506711160
 1277      H      11.6528766335     1.3472739201    21.2806711160
 1278      H       8.6678766335     7.5282739201    21.4556711160
 1279      H       8.3738766335    10.1612739201    21.3336711160
 1280      H       8.1918766335    12.8222739201    21.3306711160
 1281      H       3.9178766335     7.5372739201    21.8336711160
 1282      H       4.0708766335    10.1672739201    21.4906711160
 1283      H       4.1818766335    12.8262739201    21.3366711160
 1284      H       1.4578766335    -2.8427260799    11.8986711160
 1285      H       1.8588766335    -2.5067260799     9.3026711160
 1286      H      11.1058766335    -7.1207260799     5.1666711160
 1287      H      15.8688766335    -7.0037260799     4.7366711160
 1288      H      11.5068766335    -6.3337260799     7.6766711160
 1289      H      11.8178766335    -6.7417260799    10.2786711160
 1290      H      15.8908766335    -8.8367260799     9.1316711160
 1291      H      17.6008766335    -7.3617260799    12.1766711160
 1292      H      13.6558766335    -7.3207260799    12.1026711160
 1293      H       0.0238766335    -0.0307260799     2.6506711160
 1294      H       5.7078766335    -6.6607260799    12.0966711160
 1295      H       1.3698766335    -6.0827260799    11.8396711160
 1296      H      19.4788766335    -7.3087260799    10.2726711160
 1297      H       1.0168766335    -6.6057260799     0.8506711160
 1298      H       5.7648766335    -6.6697260799     1.2406711160
 1299      H       8.0198766335    -0.0387260799    21.0416711160
 1300      H       7.6368766335    -2.6687260799    20.9106711160
 1301      H       3.6388766335    -2.3567260799    20.9296711160
 1302      H      11.0468766335    -7.4887260799    18.6336711160
 1303      H      15.8098766335    -7.3717260799    18.2046711160
 1304      H      15.7988766335    -7.2097260799    20.8516711160
 1305      H      11.4478766335    -6.7017260799    21.1446711160
 1306      H      -0.0351233665    -0.3987260799    16.1186711160
 1307      H      15.9218766335    -3.0587260799    20.9326711160
 1308      H      11.4708766335    -3.4257260799    21.2046711160
 1309      H       0.9578766335    -6.9727260799    14.3186711160
 1310      H       5.7058766335    -7.0367260799    14.7086711160
 1311      H       1.5168766335    -2.4757260799    -1.5693288840
 1312      H       8.1368766335     0.6962739201    -5.8933288840
 1313      H       7.7548766335    -1.9337260799    -6.0253288840
 1314      H      15.9168766335    -6.4747260799    -6.0843288840
 1315      H      11.8768766335    -6.3747260799    -3.1893288840
 1316      H      15.9498766335    -8.4697260799    -4.3363288840
 1317      H      17.6598766335    -6.9937260799    -1.2913288840
 1318      H      13.7138766335    -6.9527260799    -1.3653288840
 1319      H      16.0388766335    -2.3237260799    -6.0023288840
 1320      H      11.5888766335    -2.6907260799    -5.7313288840
 1321      H       5.7668766335    -6.2937260799    -1.3713288840
 1322      H       1.4288766335    -5.7147260799    -1.6283288840
 1323      H      19.5378766335    -6.9417260799    -3.1953288840
 1324      H      39.7408766335    -3.5307260799    10.4506711160
 1325      H      31.2498766335    -7.8377260799     5.2346711160
 1326      H      36.0128766335    -7.7207260799     4.8056711160
 1327      H      31.6508766335    -7.0507260799     7.7446711160
 1328      H      31.9618766335    -7.4587260799    10.3466711160
 1329      H      36.0348766335    -9.5537260799     9.2006711160
 1330      H      37.7448766335    -8.0787260799    12.2456711160
 1331      H      33.7998766335    -8.0377260799    12.1706711160
 1332      H      38.2758766335    -1.9067260799     1.1196711160
 1333      H      37.9168766335    -1.6817260799     3.7376711160
 1334      H      25.8518766335    -7.3777260799    12.1656711160
 1335      H      21.5138766335    -6.7997260799    11.9076711160
 1336      H      39.6228766335    -8.0257260799    10.3406711160
 1337      H      21.1608766335    -7.3217260799     0.9186711160
 1338      H      25.9088766335    -7.3867260799     1.3096711160
 1339      H      28.6288766335     1.8412739201    21.3626711160
 1340      H      23.8828766335     2.1742739201    21.7936711160
 1341      H      23.8718766335    -0.4227260799    21.2646711160
 1342      H      21.9948766335    17.2942739201    15.0186711160
 1343      H      38.6418766335    10.5892739201    15.0246711160
 1344      H      38.3488766335    10.2682739201    17.6566711160
 1345      H      38.5718766335     5.8322739201    14.8076711160
 1346      H      38.1818766335     5.9802739201    17.4436711160
 1347      H      36.6758766335     7.9872739201    21.5526711160
 1348      H      32.1358766335     7.7742739201    21.6146711160
 1349      H      36.6538766335    12.0862739201    21.4686711160
 1350      H      32.3028766335    12.5942739201    21.7616711160
 1351      H      38.4668766335     2.5492739201    14.7536711160
 1352      H      38.1408766335     2.1752739201    17.3926711160
 1353      H      32.0228766335    16.7492739201    19.3246711160
 1354      H      36.4338766335    -0.0677260799    21.3196711160
 1355      H      31.7968766335     0.6302739201    21.3496711160
 1356      H      36.7758766335    16.2372739201    21.5506711160
 1357      H      32.3248766335    15.8702739201    21.8226711160
 1358      H      28.8118766335     6.8112739201    21.5236711160
 1359      H      28.5178766335     9.4442739201    21.4026711160
 1360      H      28.3358766335    12.1052739201    21.3986711160
 1361      H      24.0618766335     6.8202739201    21.9026711160
 1362      H      24.2158766335     9.4502739201    21.5586711160
 1363      H      24.3258766335    12.1092739201    21.4056711160
 1364      H      27.0418766335    19.0652739201    -2.3803288840
 1365      H      22.3278766335    19.2582739201    -1.9753288840
 1366      H      28.7468766335     2.5752739201    -5.5733288840
 1367      H      28.6098766335    17.3622739201    -5.4073288840
 1368      H      24.0008766335     2.9092739201    -5.1413288840
 1369      H      23.9898766335     0.3122739201    -5.6713288840
 1370      H      24.6108766335    17.6742739201    -5.3883288840
 1371      H      39.9868766335     0.4912739201    -2.9623288840
 1372      H      40.5098766335    16.8502739201    -2.4683288840
 1373      H      36.7928766335     8.7222739201    -5.3833288840
 1374      H      32.2538766335     8.5092739201    -5.3213288840
 1375      H      36.7708766335    12.8212739201    -5.4663288840
 1376      H      32.4208766335    13.3292739201    -5.1733288840
 1377      H      36.5518766335     0.6672739201    -5.6163288840
 1378      H      31.9148766335     1.3652739201    -5.5863288840
 1379      H      36.8938766335    16.9722739201    -5.3853288840
 1380      H      32.4428766335    16.6052739201    -5.1133288840
 1381      H      37.1158766335    18.6452739201    -3.3223288840
 1382      H      32.4358766335    18.9842739201    -3.9463288840
 1383      H      34.7738766335    17.1962739201    -0.6913288840
 1384      H      28.9298766335     7.5462739201    -5.4123288840
 1385      H      28.6348766335    10.1792739201    -5.5333288840
 1386      H      28.4538766335    12.8402739201    -5.5363288840
 1387      H      24.1798766335     7.5552739201    -5.0333288840
 1388      H      24.3328766335    10.1852739201    -5.3773288840
 1389      H      24.4438766335    12.8442739201    -5.5303288840
 1390      H      40.2888766335     8.7432739201    -2.7063288840
 1391      H      40.3918766335    12.3542739201    -2.5773288840
 1392      H      28.1638766335    -0.7557260799    21.1106711160
 1393      H      27.7808766335    -3.3857260799    20.9786711160
 1394      H      23.7828766335    -3.0737260799    20.9976711160
 1395      H      31.1908766335    -8.2057260799    18.7026711160
 1396      H      35.9538766335    -8.0887260799    18.2736711160
 1397      H      35.9428766335    -7.9267260799    20.9196711160
 1398      H      31.5928766335    -7.4187260799    21.2126711160
 1399      H      38.2168766335    -2.2747260799    14.5876711160
 1400      H      37.8578766335    -2.0497260799    17.2046711160
 1401      H      36.0658766335    -3.7757260799    21.0016711160
 1402      H      31.6148766335    -4.1427260799    21.2736711160
 1403      H      21.1018766335    -7.6897260799    14.3866711160
 1404      H      25.8498766335    -7.7537260799    14.7766711160
 1405      H      28.2808766335    -0.0207260799    -5.8253288840
 1406      H      27.8988766335    -2.6507260799    -5.9563288840
 1407      H      23.9008766335    -2.3387260799    -5.9373288840
 1408      H      39.7998766335    -3.1627260799    -3.0173288840
 1409      H      36.0608766335    -7.1917260799    -6.0163288840
 1410      H      32.0208766335    -7.0917260799    -3.1203288840
 1411      H      36.0938766335    -9.1867260799    -4.2673288840
 1412      H      37.8038766335    -7.7107260799    -1.2223288840
 1413      H      33.8588766335    -7.6697260799    -1.2963288840
 1414      H      36.1828766335    -3.0407260799    -5.9343288840
 1415      H      31.7328766335    -3.4077260799    -5.6623288840
 1416      H      25.9108766335    -7.0107260799    -1.3023288840
 1417      H      21.5728766335    -6.4317260799    -1.5593288840
 1418      H      39.6818766335    -7.6587260799    -3.1263288840
 1419      H      12.6268766335    14.7842739201    19.7596711160
 1420      H      15.9028766335    14.7342739201    19.9406711160
 1421      H       6.4448766335    17.5622739201    15.2486711160
 1422      H      26.5888766335    16.8452739201    15.3176711160
 1423      H      18.4448766335    17.1922739201    12.6006711160
 1424      H      38.6478766335    16.8432739201    -0.7993288840
 1425      H      38.5888766335    16.4762739201    12.6686711160
 1426      H      36.6298766335    16.4312739201    19.0766711160
 1427      H      28.6698766335    -4.7707260799    -4.9763288840
 1428      H      23.6588766335    -4.5837260799    -4.9783288840
 1429      H       5.0598766335     9.9092739201    -3.0103288840
 1430      H       4.7588766335     1.7702739201    -3.2263288840
 1431      H       4.6498766335    -2.1297260799    -3.3943288840
 1432      H      16.5448766335    17.5162739201     5.5396711160
 1433      H      26.6478766335    17.2132739201     1.8496711160
 1434      H       6.5038766335    17.9302739201     1.7806711160
 1435      H       8.4948766335    17.6492739201     8.1706711160
 1436      H      18.5038766335    17.5602739201    -0.8673288840
 1437      H      28.6388766335    16.9322739201     8.2386711160
 1438      H       8.5258766335    -4.0537260799    -5.0453288840
 1439      H       3.4558766335    -4.2347260799     8.4206711160
 1440      H       8.4668766335    -4.4207260799     8.4226711160
 1441      H      23.5998766335    -4.9507260799     8.4886711160
 1442      H      28.6108766335    -5.1377260799     8.4906711160
 1443      H      36.6888766335    16.7992739201     5.6086711160
 ----------------------------------------------------------------
 Nuclear Repulsion Energy =     2633124.83936465 hartrees
 There are      295 alpha and      295 beta electrons
 Total job time:  67204.12s(wall), 1253145.00s(cpu) 
 Fri Jun 25 08:50:41 2021

        *************************************************************
        *                                                           *
        *  Thank you very much for using Q-Chem.  Have a nice day.  *
        *                                                           *
        *************************************************************


