
Running Job 1 of 1 METH-CHA-freq.in
qchem METH-CHA-freq.in_31283.0 /scr/lance/134489/qchem31283/ 0
/home/mgcf/software-ws/qchem/qchem_540/exe/qcprog.exe_s METH-CHA-freq.in_31283.0 /scr/lance/134489/qchem31283/
                  Welcome to Q-Chem
     A Quantum Leap Into The Future Of Chemistry


 Q-Chem 5.4, Q-Chem, Inc., Pleasanton, CA (2021)

 E. Epifanovsky,  A. T. B. Gilbert,  Xintian Feng,  Joonho Lee,  Yuezhi Mao,  
 N. Mardirossian,  P. Pokhilko,  A. White,  M. Wormit,  M. P. Coons,  
 A. L. Dempwolff,  Zhengting Gan,  D. Hait,  P. R. Horn,  L. D. Jacobson,  
 I. Kaliman,  J. Kussmann,  A. W. Lange,  Ka Un Lao,  D. S. Levine,  Jie Liu,  
 S. C. McKenzie,  A. F. Morrison,  K. Nanda,  F. Plasser,  D. R. Rehn,  
 M. L. Vidal,  Zhi-Qiang You,  Ying Zhu,  B. Alam,  B. Albrecht,  
 A. Aldossary,  E. Alguire,  J. H. Andersen,  D. Barton,  K. Begam,  A. Behn,  
 Y. A. Bernard,  E. J. Berquist,  H. Burton,  A. Carreras,  K. Carter-Fenk,  
 R. Chakraborty,  A. D. Chien,  K. D. Closser,  V. Cofer-Shabica,  
 S. Dasgupta,  Jia Deng,  M. de Wergifosse,  M. Diedenhofen,  Hainam Do,  
 S. Ehlert,  Po-Tung Fang,  S. Fatehi,  Qingguo Feng,  J. Gayvert,  
 Qinghui Ge,  G. Gidofalvi,  M. Goldey,  J. Gomes,  C. Gonzalez-Espinoza,  
 S. Gulania,  A. Gunina,  M. W. D. Hanson-Heine,  P. H. P. Harbach,  
 A. W. Hauser,  M. F. Herbst,  M. Hernandez Vera,  M. Hodecker,  
 Z. C. Holden,  S. Houck,  Xunkun Huang,  Kerwin Hui,  B. C. Huynh,  
 M. Ivanov,  Hyunjun Ji,  Hanjie Jiang,  B. Kaduk,  S. Kaehler,  
 K. Khistyaev,  Jaehoon Kim,  P. Klunzinger,  Z. Koczor-Benda,  
 Joong Hoon Koh,  D. Kosenkov,  L. Koulias,  T. Kowalczyk,  C. M. Krauter,  
 K. Kue,  A. Kunitsa,  T. Kus,  A. Landau,  K. V. Lawler,  D. Lefrancois,  
 S. Lehtola,  Rain Li,  Yi-Pei Li,  Jiashu Liang,  M. Liebenthal,  
 Hung-Hsuan Lin,  You-Sheng Lin,  Fenglai Liu,  Kuan-Yu Liu,  
 M. Loipersberger,  A. Luenser,  A. Manjanath,  P. Manohar,  E. Mansoor,  
 S. F. Manzer,  Shan-Ping Mao,  A. V. Marenich,  T. Markovich,  S. Mason,  
 S. A. Maurer,  P. F. McLaughlin,  M. F. S. J. Menger,  J.-M. Mewes,  
 S. A. Mewes,  P. Morgante,  J. W. Mullinax,  T. S. Nguyen-Beck,  
 K. J. Oosterbaan,  G. Paran,  Alexander C. Paul,  Suranjan K. Paul,  
 F. Pavosevic,  Zheng Pei,  S. Prager,  E. I. Proynov,  E. Ramos,  B. Rana,  
 A. E. Rask,  A. Rettig,  R. M. Richard,  F. Rob,  E. Rossomme,  T. Scheele,  
 M. Scheurer,  M. Schneider,  N. Sergueev,  S. M. Sharada,  W. Skomorowski,  
 D. W. Small,  C. J. Stein,  Yu-Chuan Su,  E. J. Sundstrom,  Zhen Tao,  
 J. Thirman,  T. Tsuchimochi,  N. M. Tubman,  S. P. Veccham,  O. Vydrov,  
 J. Wenzel,  J. Witte,  A. Yamada,  Kun Yao,  S. Yeganeh,  S. R. Yost,  
 A. Zech,  Igor Ying Zhang,  Xing Zhang,  Yu Zhang,  D. Zuev,  
 A. Aspuru-Guzik,  A. T. Bell,  N. A. Besley,  K. B. Bravaya,  B. R. Brooks,  
 D. Casanova,  Jeng-Da Chai,  S. Coriani,  C. J. Cramer,  
 A. E. DePrince, III,  R. A. DiStasio Jr.,  A. Dreuw,  B. D. Dunietz,  
 T. R. Furlani,  W. A. Goddard III,  S. Grimme,  S. Hammes-Schiffer,  
 T. Head-Gordon,  W. J. Hehre,  Chao-Ping Hsu,  T.-C. Jagau,  Yousung Jung,  
 A. Klamt,  Jing Kong,  D. S. Lambrecht,  WanZhen Liang,  N. J. Mayhall,  
 C. W. McCurdy,  J. B. Neaton,  C. Ochsenfeld,  J. A. Parkhill,  R. Peverati,  
 V. A. Rassolov,  Yihan Shao,  L. V. Slipchenko,  T. Stauch,  R. P. Steele,  
 J. E. Subotnik,  A. J. W. Thom,  A. Tkatchenko,  D. G. Truhlar,  
 T. Van Voorhis,  T. A. Wesolowski,  K. B. Whaley,  H. L. Woodcock III,  
 P. M. Zimmerman,  S. Faraji,  P. M. W. Gill,  M. Head-Gordon,  
 J. M. Herbert,  A. I. Krylov

 Contributors to earlier versions of Q-Chem not listed above: 
 R. D. Adamson,  B. Austin,  R. Baer,  J. Baker,  G. J. O. Beran,  
 K. Brandhorst,  S. T. Brown,  E. F. C. Byrd,  A. K. Chakraborty,  
 G. K. L. Chan,  Chun-Min Chang,  Yunqing Chen,  C.-L. Cheng,  
 Siu Hung Chien,  D. M. Chipman,  D. L. Crittenden,  H. Dachsel,  
 R. J. Doerksen,  A. D. Dutoi,  R. G. Edgar,  J. Fosso-Tande,  
 L. Fusti-Molnar,  D. Ghosh,  A. Ghysels,  A. Golubeva-Zadorozhnaya,  
 J. Gonthier,  M. S. Gordon,  S. R. Gwaltney,  G. Hawkins,  J. E. Herr,  
 A. Heyden,  S. Hirata,  E. G. Hohenstein,  G. Kedziora,  F. J. Keil,  
 C. Kelley,  Jihan Kim,  R. A. King,  R. Z. Khaliullin,  P. P. Korambath,  
 W. Kurlancheek,  A. Laurent,  A. M. Lee,  M. S. Lee,  S. V. Levchenko,  
 Ching Yeh Lin,  D. Liotard,  E. Livshits,  R. C. Lochan,  I. Lotan,  
 L. A. Martinez-Martinez,  P. E. Maslen,  N. Nair,  D. P. O'Neill,  
 D. Neuhauser,  E. Neuscamman,  C. M. Oana,  R. Olivares-Amaya,  R. Olson,  
 T. M. Perrine,  B. Peters,  P. A. Pieniazek,  A. Prociuk,  Y. M. Rhee,  
 J. Ritchie,  M. A. Rohrdanz,  E. Rosta,  N. J. Russ,  H. F. Schaefer III,  
 M. W. Schmidt,  N. E. Schultz,  S. Sharma,  N. Shenvi,  C. D. Sherrill,  
 A. C. Simmonett,  A. Sodt,  T. Stein,  D. Stuck,  K. S. Thanthiriwatte,  
 V. Vanovschi,  L. Vogt,  Tao Wang,  A. Warshel,  M. A. Watson,  
 C. F. Williams,  Q. Wu,  X. Xu,  Jun Yang,  W. Zhang,  Yan Zhao

 Please cite Q-Chem as follows:
 Y. Shao et al., Mol. Phys. 113, 184-215 (2015)
 DOI: 10.1080/00268976.2014.952696

 Q-Chem 5.4.0 for Intel X86 EM64T Linux

 Parts of Q-Chem use Armadillo 9.800.1 (Horizon Scraper).
 http://arma.sourceforge.net/

 Q-Chem begins on Fri Jun 25 10:30:52 2021  

 Host: 
0

     Scratch files written to /scr/lance/134489/qchem31283//
 May1621 |scratch|qcdevops|jenkins|workspace|build_RNUM -1
 Processing $rem in /home/mgcf/software-ws/qchem/qchem_540/config/preferences:
 Processing $rem in /home/lance/.qchemrc:
Applying user defined connections for MM calculations

 Checking the input file for inconsistencies... 	...done.

--------------------------------------------------------------
User input:
--------------------------------------------------------------
$rem
jobtype		freq
gui     	2
!vibman_print	4
max_scf_cycles  500
geom_opt_max_cycles 999
exchange 	omegab97x-d
basis def2-svp
!basis		6-311+G(3df,3pd)
scf_algorithm 	rca_diis
QM_MM_INTERFACE Zeolite
force_field   	charmm27
user_connect   	true
symmetry  	 off
sym_ignore   	true
print_input   	true
qmmm_print   	false
qm_mm   	true
model_system_mult 1
qmmm_full_hessian 	false
mem_total   10000000
mem_static   10000
pop_mulliken 	false
!nbo	true
isotopes true
$end

$qm_atoms
1
2
3
4
5
6
7
8
9
10
11
12
13
14
15
16
17
18
19
20
21
22
23
24
25
26
27
28
29
30
31
32
33
34
35
36
37
38
39
40
41
42
43
44
45
46
47
48
49
50
51
52
53
54
55
56
57
58
59
$end

$isotopes
1 0
26
60 100000000000000000
61 100000000000000000
62 100000000000000000
63 100000000000000000
64 100000000000000000
65 100000000000000000
66 100000000000000000
67 100000000000000000
68 100000000000000000
69 100000000000000000
70 100000000000000000
71 100000000000000000
72 100000000000000000
73 100000000000000000
74 100000000000000000
75 100000000000000000
76 100000000000000000
77 100000000000000000
78 100000000000000000
79 100000000000000000
80 100000000000000000
81 100000000000000000
82 100000000000000000
83 100000000000000000
84 100000000000000000
85 100000000000000000
$end

$comment
Atom   type   and   names
-1   Oxygen   in   SiO4
-2   Silicon   in   SiO4
-3   H for terminal in SiO4
-4   H hydrolysis
-23  Si right out of T5 and has one connectin to QM
-22  Si right out of T5 and has two connectin to QM
$end

$opt
fixed
60 XYZ
61 XYZ
62 XYZ
63	XYZ
64	XYZ
65	XYZ
66	XYZ
67	XYZ
68	XYZ
69	XYZ
70	XYZ
71	XYZ
72	XYZ
73	XYZ
74	XYZ
75	XYZ
76	XYZ
77	XYZ
78	XYZ
79	XYZ
80	XYZ
81	XYZ
82	XYZ
83	XYZ
84	XYZ
85	XYZ
86	XYZ
87	XYZ
88	XYZ
89	XYZ
90	XYZ
91	XYZ
92	XYZ
93	XYZ
94	XYZ
95	XYZ
96	XYZ
97	XYZ
98	XYZ
99	XYZ
100	XYZ
101	XYZ
102	XYZ
103	XYZ
104	XYZ
105	XYZ
106	XYZ
107	XYZ
108	XYZ
109	XYZ
110	XYZ
111	XYZ
112	XYZ
113	XYZ
114	XYZ
115	XYZ
116	XYZ
117	XYZ
118	XYZ
119	XYZ
120	XYZ
121	XYZ
122	XYZ
123	XYZ
124	XYZ
125	XYZ
126	XYZ
127	XYZ
128	XYZ
129	XYZ
130	XYZ
131	XYZ
132	XYZ
133	XYZ
134	XYZ
135	XYZ
136	XYZ
137	XYZ
138	XYZ
139	XYZ
140	XYZ
141	XYZ
142	XYZ
143	XYZ
144	XYZ
145	XYZ
146	XYZ
147	XYZ
148	XYZ
149	XYZ
150	XYZ
151	XYZ
152	XYZ
153	XYZ
154	XYZ
155	XYZ
156	XYZ
157	XYZ
158	XYZ
159	XYZ
160	XYZ
161	XYZ
162	XYZ
163	XYZ
164	XYZ
165	XYZ
166	XYZ
167	XYZ
168	XYZ
169	XYZ
170	XYZ
171	XYZ
172	XYZ
173	XYZ
174	XYZ
175	XYZ
176	XYZ
177	XYZ
178	XYZ
179	XYZ
180	XYZ
181	XYZ
182	XYZ
183	XYZ
184	XYZ
185	XYZ
186	XYZ
187	XYZ
188	XYZ
189	XYZ
190	XYZ
191	XYZ
192	XYZ
193	XYZ
194	XYZ
195	XYZ
196	XYZ
197	XYZ
198	XYZ
199	XYZ
200	XYZ
201	XYZ
202	XYZ
203	XYZ
204	XYZ
205	XYZ
206	XYZ
207	XYZ
208	XYZ
209	XYZ
210	XYZ
211	XYZ
212	XYZ
213	XYZ
214	XYZ
215	XYZ
216	XYZ
217	XYZ
218	XYZ
219	XYZ
220	XYZ
221	XYZ
222	XYZ
223	XYZ
224	XYZ
225	XYZ
226	XYZ
227	XYZ
228	XYZ
229	XYZ
230	XYZ
231	XYZ
232	XYZ
233	XYZ
234	XYZ
235	XYZ
236	XYZ
237	XYZ
238	XYZ
239	XYZ
240	XYZ
241	XYZ
242	XYZ
243	XYZ
244	XYZ
245	XYZ
246	XYZ
247	XYZ
248	XYZ
249	XYZ
250	XYZ
251	XYZ
252	XYZ
253	XYZ
254	XYZ
255	XYZ
256	XYZ
257	XYZ
258	XYZ
259	XYZ
260	XYZ
261	XYZ
262	XYZ
263	XYZ
264	XYZ
265	XYZ
266	XYZ
267	XYZ
268	XYZ
269	XYZ
270	XYZ
271	XYZ
272	XYZ
273	XYZ
274	XYZ
275	XYZ
276	XYZ
277	XYZ
278	XYZ
279	XYZ
280	XYZ
281	XYZ
282	XYZ
283	XYZ
284	XYZ
285	XYZ
286	XYZ
287	XYZ
288	XYZ
289	XYZ
290	XYZ
291	XYZ
292	XYZ
293	XYZ
294	XYZ
295	XYZ
296	XYZ
297	XYZ
298	XYZ
299	XYZ
300	XYZ
301	XYZ
302	XYZ
303	XYZ
304	XYZ
305	XYZ
306	XYZ
307	XYZ
308	XYZ
309	XYZ
310	XYZ
311	XYZ
312	XYZ
313	XYZ
314	XYZ
315	XYZ
316	XYZ
317	XYZ
318	XYZ
319	XYZ
320	XYZ
321	XYZ
322	XYZ
323	XYZ
324	XYZ
325	XYZ
326	XYZ
327	XYZ
328	XYZ
329	XYZ
330	XYZ
331	XYZ
332	XYZ
333	XYZ
334	XYZ
335	XYZ
336	XYZ
337	XYZ
338	XYZ
339	XYZ
340	XYZ
341	XYZ
342	XYZ
343	XYZ
344	XYZ
345	XYZ
346	XYZ
347	XYZ
348	XYZ
349	XYZ
350	XYZ
351	XYZ
352	XYZ
353	XYZ
354	XYZ
355	XYZ
356	XYZ
357	XYZ
358	XYZ
359	XYZ
360	XYZ
361	XYZ
362	XYZ
363	XYZ
364	XYZ
365	XYZ
366	XYZ
367	XYZ
368	XYZ
369	XYZ
370	XYZ
371	XYZ
372	XYZ
373	XYZ
374	XYZ
375	XYZ
376	XYZ
377	XYZ
378	XYZ
379	XYZ
380	XYZ
381	XYZ
382	XYZ
383	XYZ
384	XYZ
385	XYZ
386	XYZ
387	XYZ
388	XYZ
389	XYZ
390	XYZ
391	XYZ
392	XYZ
393	XYZ
394	XYZ
395	XYZ
396	XYZ
397	XYZ
398	XYZ
399	XYZ
400	XYZ
401	XYZ
402	XYZ
403	XYZ
404	XYZ
405	XYZ
406	XYZ
407	XYZ
408	XYZ
409	XYZ
410	XYZ
411	XYZ
412	XYZ
413	XYZ
414	XYZ
415	XYZ
416	XYZ
417	XYZ
418	XYZ
419	XYZ
420	XYZ
421	XYZ
422	XYZ
423	XYZ
424	XYZ
425	XYZ
426	XYZ
427	XYZ
428	XYZ
429	XYZ
430	XYZ
431	XYZ
432	XYZ
433	XYZ
434	XYZ
435	XYZ
436	XYZ
437	XYZ
438	XYZ
439	XYZ
440	XYZ
441	XYZ
442	XYZ
443	XYZ
444	XYZ
445	XYZ
446	XYZ
447	XYZ
448	XYZ
449	XYZ
450	XYZ
451	XYZ
452	XYZ
453	XYZ
454	XYZ
455	XYZ
456	XYZ
457	XYZ
458	XYZ
459	XYZ
460	XYZ
461	XYZ
462	XYZ
463	XYZ
464	XYZ
465	XYZ
466	XYZ
467	XYZ
468	XYZ
469	XYZ
470	XYZ
471	XYZ
472	XYZ
473	XYZ
474	XYZ
475	XYZ
476	XYZ
477	XYZ
478	XYZ
479	XYZ
480	XYZ
481	XYZ
482	XYZ
483	XYZ
484	XYZ
485	XYZ
486	XYZ
487	XYZ
488	XYZ
489	XYZ
490	XYZ
491	XYZ
492	XYZ
493	XYZ
494	XYZ
495	XYZ
496	XYZ
497	XYZ
498	XYZ
499	XYZ
500	XYZ
501	XYZ
502	XYZ
503	XYZ
504	XYZ
505	XYZ
506	XYZ
507	XYZ
508	XYZ
509	XYZ
510	XYZ
511	XYZ
512	XYZ
513	XYZ
514	XYZ
515	XYZ
516	XYZ
517	XYZ
518	XYZ
519	XYZ
520	XYZ
521	XYZ
522	XYZ
523	XYZ
524	XYZ
525	XYZ
526	XYZ
527	XYZ
528	XYZ
529	XYZ
530	XYZ
531	XYZ
532	XYZ
533	XYZ
534	XYZ
535	XYZ
536	XYZ
537	XYZ
538	XYZ
539	XYZ
540	XYZ
541	XYZ
542	XYZ
543	XYZ
544	XYZ
545	XYZ
546	XYZ
547	XYZ
548	XYZ
549	XYZ
550	XYZ
551	XYZ
552	XYZ
553	XYZ
554	XYZ
555	XYZ
556	XYZ
557	XYZ
558	XYZ
559	XYZ
560	XYZ
561	XYZ
562	XYZ
563	XYZ
564	XYZ
565	XYZ
566	XYZ
567	XYZ
568	XYZ
569	XYZ
570	XYZ
571	XYZ
572	XYZ
573	XYZ
574	XYZ
575	XYZ
576	XYZ
577	XYZ
578	XYZ
579	XYZ
580	XYZ
581	XYZ
582	XYZ
583	XYZ
584	XYZ
585	XYZ
586	XYZ
587	XYZ
588	XYZ
589	XYZ
590	XYZ
591	XYZ
592	XYZ
593	XYZ
594	XYZ
595	XYZ
596	XYZ
597	XYZ
598	XYZ
599	XYZ
600	XYZ
601	XYZ
602	XYZ
603	XYZ
604	XYZ
605	XYZ
606	XYZ
607	XYZ
608	XYZ
609	XYZ
610	XYZ
611	XYZ
612	XYZ
613	XYZ
614	XYZ
615	XYZ
616	XYZ
617	XYZ
618	XYZ
619	XYZ
620	XYZ
621	XYZ
622	XYZ
623	XYZ
624	XYZ
625	XYZ
626	XYZ
627	XYZ
628	XYZ
629	XYZ
630	XYZ
631	XYZ
632	XYZ
633	XYZ
634	XYZ
635	XYZ
636	XYZ
637	XYZ
638	XYZ
639	XYZ
640	XYZ
641	XYZ
642	XYZ
643	XYZ
644	XYZ
645	XYZ
646	XYZ
647	XYZ
648	XYZ
649	XYZ
650	XYZ
651	XYZ
652	XYZ
653	XYZ
654	XYZ
655	XYZ
656	XYZ
657	XYZ
658	XYZ
659	XYZ
660	XYZ
661	XYZ
662	XYZ
663	XYZ
664	XYZ
665	XYZ
666	XYZ
667	XYZ
668	XYZ
669	XYZ
670	XYZ
671	XYZ
672	XYZ
673	XYZ
674	XYZ
675	XYZ
676	XYZ
677	XYZ
678	XYZ
679	XYZ
680	XYZ
681	XYZ
682	XYZ
683	XYZ
684	XYZ
685	XYZ
686	XYZ
687	XYZ
688	XYZ
689	XYZ
690	XYZ
691	XYZ
692	XYZ
693	XYZ
694	XYZ
695	XYZ
696	XYZ
697	XYZ
698	XYZ
699	XYZ
700	XYZ
701	XYZ
702	XYZ
703	XYZ
704	XYZ
705	XYZ
706	XYZ
707	XYZ
708	XYZ
709	XYZ
710	XYZ
711	XYZ
712	XYZ
713	XYZ
714	XYZ
715	XYZ
716	XYZ
717	XYZ
718	XYZ
719	XYZ
720	XYZ
721	XYZ
722	XYZ
723	XYZ
724	XYZ
725	XYZ
726	XYZ
727	XYZ
728	XYZ
729	XYZ
730	XYZ
731	XYZ
732	XYZ
733	XYZ
734	XYZ
735	XYZ
736	XYZ
737	XYZ
738	XYZ
739	XYZ
740	XYZ
741	XYZ
742	XYZ
743	XYZ
744	XYZ
745	XYZ
746	XYZ
747	XYZ
748	XYZ
749	XYZ
750	XYZ
751	XYZ
752	XYZ
753	XYZ
754	XYZ
755	XYZ
756	XYZ
757	XYZ
758	XYZ
759	XYZ
760	XYZ
761	XYZ
762	XYZ
763	XYZ
764	XYZ
765	XYZ
766	XYZ
767	XYZ
768	XYZ
769	XYZ
770	XYZ
771	XYZ
772	XYZ
773	XYZ
774	XYZ
775	XYZ
776	XYZ
777	XYZ
778	XYZ
779	XYZ
780	XYZ
781	XYZ
782	XYZ
783	XYZ
784	XYZ
785	XYZ
786	XYZ
787	XYZ
788	XYZ
789	XYZ
790	XYZ
791	XYZ
792	XYZ
793	XYZ
794	XYZ
795	XYZ
796	XYZ
797	XYZ
798	XYZ
799	XYZ
800	XYZ
801	XYZ
802	XYZ
803	XYZ
804	XYZ
805	XYZ
806	XYZ
807	XYZ
808	XYZ
809	XYZ
810	XYZ
811	XYZ
812	XYZ
813	XYZ
814	XYZ
815	XYZ
816	XYZ
817	XYZ
818	XYZ
819	XYZ
820	XYZ
821	XYZ
822	XYZ
823	XYZ
824	XYZ
825	XYZ
826	XYZ
827	XYZ
828	XYZ
829	XYZ
830	XYZ
831	XYZ
832	XYZ
833	XYZ
834	XYZ
835	XYZ
836	XYZ
837	XYZ
838	XYZ
839	XYZ
840	XYZ
841	XYZ
842	XYZ
843	XYZ
844	XYZ
845	XYZ
846	XYZ
847	XYZ
848	XYZ
849	XYZ
850	XYZ
851	XYZ
852	XYZ
853	XYZ
854	XYZ
855	XYZ
856	XYZ
857	XYZ
858	XYZ
859	XYZ
860	XYZ
861	XYZ
862	XYZ
863	XYZ
864	XYZ
865	XYZ
866	XYZ
867	XYZ
868	XYZ
869	XYZ
870	XYZ
871	XYZ
872	XYZ
873	XYZ
874	XYZ
875	XYZ
876	XYZ
877	XYZ
878	XYZ
879	XYZ
880	XYZ
881	XYZ
882	XYZ
883	XYZ
884	XYZ
885	XYZ
886	XYZ
887	XYZ
888	XYZ
889	XYZ
890	XYZ
891	XYZ
892	XYZ
893	XYZ
894	XYZ
895	XYZ
896	XYZ
897	XYZ
898	XYZ
899	XYZ
900	XYZ
901	XYZ
902	XYZ
903	XYZ
904	XYZ
905	XYZ
906	XYZ
907	XYZ
908	XYZ
909	XYZ
910	XYZ
911	XYZ
912	XYZ
913	XYZ
914	XYZ
915	XYZ
916	XYZ
917	XYZ
918	XYZ
919	XYZ
920	XYZ
921	XYZ
922	XYZ
923	XYZ
924	XYZ
925	XYZ
926	XYZ
927	XYZ
928	XYZ
929	XYZ
930	XYZ
931	XYZ
932	XYZ
933	XYZ
934	XYZ
935	XYZ
936	XYZ
937	XYZ
938	XYZ
939	XYZ
940	XYZ
941	XYZ
942	XYZ
943	XYZ
944	XYZ
945	XYZ
946	XYZ
947	XYZ
948	XYZ
949	XYZ
950	XYZ
951	XYZ
952	XYZ
953	XYZ
954	XYZ
955	XYZ
956	XYZ
957	XYZ
958	XYZ
959	XYZ
960	XYZ
961	XYZ
962	XYZ
963	XYZ
964	XYZ
965	XYZ
966	XYZ
967	XYZ
968	XYZ
969	XYZ
970	XYZ
971	XYZ
972	XYZ
973	XYZ
974	XYZ
975	XYZ
976	XYZ
977	XYZ
978	XYZ
979	XYZ
980	XYZ
981	XYZ
982	XYZ
983	XYZ
984	XYZ
985	XYZ
986	XYZ
987	XYZ
988	XYZ
989	XYZ
990	XYZ
991	XYZ
992	XYZ
993	XYZ
994	XYZ
995	XYZ
996	XYZ
997	XYZ
998	XYZ
999	XYZ
1000	XYZ
1001	XYZ
1002	XYZ
1003	XYZ
1004	XYZ
1005	XYZ
1006	XYZ
1007	XYZ
1008	XYZ
1009	XYZ
1010	XYZ
1011	XYZ
1012	XYZ
1013	XYZ
1014	XYZ
1015	XYZ
1016	XYZ
1017	XYZ
1018	XYZ
1019	XYZ
1020	XYZ
1021	XYZ
1022	XYZ
1023	XYZ
1024	XYZ
1025	XYZ
1026	XYZ
1027	XYZ
1028	XYZ
1029	XYZ
1030	XYZ
1031	XYZ
1032	XYZ
1033	XYZ
1034	XYZ
1035	XYZ
1036	XYZ
1037	XYZ
1038	XYZ
1039	XYZ
1040	XYZ
1041	XYZ
1042	XYZ
1043	XYZ
1044	XYZ
1045	XYZ
1046	XYZ
1047	XYZ
1048	XYZ
1049	XYZ
1050	XYZ
1051	XYZ
1052	XYZ
1053	XYZ
1054	XYZ
1055	XYZ
1056	XYZ
1057	XYZ
1058	XYZ
1059	XYZ
1060	XYZ
1061	XYZ
1062	XYZ
1063	XYZ
1064	XYZ
1065	XYZ
1066	XYZ
1067	XYZ
1068	XYZ
1069	XYZ
1070	XYZ
1071	XYZ
1072	XYZ
1073	XYZ
1074	XYZ
1075	XYZ
1076	XYZ
1077	XYZ
1078	XYZ
1079	XYZ
1080	XYZ
1081	XYZ
1082	XYZ
1083	XYZ
1084	XYZ
1085	XYZ
1086	XYZ
1087	XYZ
1088	XYZ
1089	XYZ
1090	XYZ
1091	XYZ
1092	XYZ
1093	XYZ
1094	XYZ
1095	XYZ
1096	XYZ
1097	XYZ
1098	XYZ
1099	XYZ
1100	XYZ
1101	XYZ
1102	XYZ
1103	XYZ
1104	XYZ
1105	XYZ
1106	XYZ
1107	XYZ
1108	XYZ
1109	XYZ
1110	XYZ
1111	XYZ
1112	XYZ
1113	XYZ
1114	XYZ
1115	XYZ
1116	XYZ
1117	XYZ
1118	XYZ
1119	XYZ
1120	XYZ
1121	XYZ
1122	XYZ
1123	XYZ
1124	XYZ
1125	XYZ
1126	XYZ
1127	XYZ
1128	XYZ
1129	XYZ
1130	XYZ
1131	XYZ
1132	XYZ
1133	XYZ
1134	XYZ
1135	XYZ
1136	XYZ
1137	XYZ
1138	XYZ
1139	XYZ
1140	XYZ
1141	XYZ
1142	XYZ
1143	XYZ
1144	XYZ
1145	XYZ
1146	XYZ
1147	XYZ
1148	XYZ
1149	XYZ
1150	XYZ
1151	XYZ
1152	XYZ
1153	XYZ
1154	XYZ
1155	XYZ
1156	XYZ
1157	XYZ
1158	XYZ
1159	XYZ
1160	XYZ
1161	XYZ
1162	XYZ
1163	XYZ
1164	XYZ
1165	XYZ
1166	XYZ
1167	XYZ
1168	XYZ
1169	XYZ
1170	XYZ
1171	XYZ
1172	XYZ
1173	XYZ
1174	XYZ
1175	XYZ
1176	XYZ
1177	XYZ
1178	XYZ
1179	XYZ
1180	XYZ
1181	XYZ
1182	XYZ
1183	XYZ
1184	XYZ
1185	XYZ
1186	XYZ
1187	XYZ
1188	XYZ
1189	XYZ
1190	XYZ
1191	XYZ
1192	XYZ
1193	XYZ
1194	XYZ
1195	XYZ
1196	XYZ
1197	XYZ
1198	XYZ
1199	XYZ
1200	XYZ
1201	XYZ
1202	XYZ
1203	XYZ
1204	XYZ
1205	XYZ
1206	XYZ
1207	XYZ
1208	XYZ
1209	XYZ
1210	XYZ
1211	XYZ
1212	XYZ
1213	XYZ
1214	XYZ
1215	XYZ
1216	XYZ
1217	XYZ
1218	XYZ
1219	XYZ
1220	XYZ
1221	XYZ
1222	XYZ
1223	XYZ
1224	XYZ
1225	XYZ
1226	XYZ
1227	XYZ
1228	XYZ
1229	XYZ
1230	XYZ
1231	XYZ
1232	XYZ
1233	XYZ
1234	XYZ
1235	XYZ
1236	XYZ
1237	XYZ
1238	XYZ
1239	XYZ
1240	XYZ
1241	XYZ
1242	XYZ
1243	XYZ
1244	XYZ
1245	XYZ
1246	XYZ
1247	XYZ
1248	XYZ
1249	XYZ
1250	XYZ
1251	XYZ
1252	XYZ
1253	XYZ
1254	XYZ
1255	XYZ
1256	XYZ
1257	XYZ
1258	XYZ
1259	XYZ
1260	XYZ
1261	XYZ
1262	XYZ
1263	XYZ
1264	XYZ
1265	XYZ
1266	XYZ
1267	XYZ
1268	XYZ
1269	XYZ
1270	XYZ
1271	XYZ
1272	XYZ
1273	XYZ
1274	XYZ
1275	XYZ
1276	XYZ
1277	XYZ
1278	XYZ
1279	XYZ
1280	XYZ
1281	XYZ
1282	XYZ
1283	XYZ
1284	XYZ
1285	XYZ
1286	XYZ
1287	XYZ
1288	XYZ
1289	XYZ
1290	XYZ
1291	XYZ
1292	XYZ
1293	XYZ
1294	XYZ
1295	XYZ
1296	XYZ
1297	XYZ
1298	XYZ
1299	XYZ
1300	XYZ
1301	XYZ
1302	XYZ
1303	XYZ
1304	XYZ
1305	XYZ
1306	XYZ
1307	XYZ
1308	XYZ
1309	XYZ
1310	XYZ
1311	XYZ
1312	XYZ
1313	XYZ
1314	XYZ
1315	XYZ
1316	XYZ
1317	XYZ
1318	XYZ
1319	XYZ
1320	XYZ
1321	XYZ
1322	XYZ
1323	XYZ
1324	XYZ
1325	XYZ
1326	XYZ
1327	XYZ
1328	XYZ
1329	XYZ
1330	XYZ
1331	XYZ
1332	XYZ
1333	XYZ
1334	XYZ
1335	XYZ
1336	XYZ
1337	XYZ
1338	XYZ
1339	XYZ
1340	XYZ
1341	XYZ
1342	XYZ
1343	XYZ
1344	XYZ
1345	XYZ
1346	XYZ
1347	XYZ
1348	XYZ
1349	XYZ
1350	XYZ
1351	XYZ
1352	XYZ
1353	XYZ
1354	XYZ
1355	XYZ
1356	XYZ
1357	XYZ
1358	XYZ
1359	XYZ
1360	XYZ
1361	XYZ
1362	XYZ
1363	XYZ
1364	XYZ
1365	XYZ
1366	XYZ
1367	XYZ
1368	XYZ
1369	XYZ
1370	XYZ
1371	XYZ
1372	XYZ
1373	XYZ
1374	XYZ
1375	XYZ
1376	XYZ
1377	XYZ
1378	XYZ
1379	XYZ
1380	XYZ
1381	XYZ
1382	XYZ
1383	XYZ
1384	XYZ
1385	XYZ
1386	XYZ
1387	XYZ
1388	XYZ
1389	XYZ
1390	XYZ
1391	XYZ
1392	XYZ
1393	XYZ
1394	XYZ
1395	XYZ
1396	XYZ
1397	XYZ
1398	XYZ
1399	XYZ
1400	XYZ
1401	XYZ
1402	XYZ
1403	XYZ
1404	XYZ
1405	XYZ
1406	XYZ
1407	XYZ
1408	XYZ
1409	XYZ
1410	XYZ
1411	XYZ
1412	XYZ
1413	XYZ
1414	XYZ
1415	XYZ
1416	XYZ
1417	XYZ
1418	XYZ
1419	XYZ
1420	XYZ
1421	XYZ
1422	XYZ
1423	XYZ
1424	XYZ
1425	XYZ
1426	XYZ
1427	XYZ
1428	XYZ
1429	XYZ
1430	XYZ
1431	XYZ
1432	XYZ
1433	XYZ
1434	XYZ
1435	XYZ
1436	XYZ
1437	XYZ
1438	XYZ
1439	XYZ
1440	XYZ
1441	XYZ
1442	XYZ
1443	XYZ
1444	XYZ
1445	XYZ
1446	XYZ
1447	XYZ
1448	XYZ
1449	XYZ
1450	XYZ
1451	XYZ
1452	XYZ
1453	XYZ
1454	XYZ
1455	XYZ
1456	XYZ
1457	XYZ
1458	XYZ
1459	XYZ
1460	XYZ
1461	XYZ
1462	XYZ
1463	XYZ
1464	XYZ
1465	XYZ
1466	XYZ
1467	XYZ
1468	XYZ
1469	XYZ
1470	XYZ
1471	XYZ
1472	XYZ
1473	XYZ
1474	XYZ
1475	XYZ
1476	XYZ
1477	XYZ
1478	XYZ
1479	XYZ
1480	XYZ
1481	XYZ
1482	XYZ
1483	XYZ
1484	XYZ
1485	XYZ
1486	XYZ
1487	XYZ
1488	XYZ
1489	XYZ
1490	XYZ
1491	XYZ
1492	XYZ
1493	XYZ
1494	XYZ
1495	XYZ
1496	XYZ
1497	XYZ
1498	XYZ
1499	XYZ
1500	XYZ
1501	XYZ
1502	XYZ
1503	XYZ
1504	XYZ
1505	XYZ
1506	XYZ
1507	XYZ
1508	XYZ
1509	XYZ
1510	XYZ
1511	XYZ
1512	XYZ
1513	XYZ
1514	XYZ
1515	XYZ
1516	XYZ
1517	XYZ
1518	XYZ
1519	XYZ
1520	XYZ
1521	XYZ
1522	XYZ
1523	XYZ
1524	XYZ
1525	XYZ
1526	XYZ
1527	XYZ
1528	XYZ
1529	XYZ
1530	XYZ
1531	XYZ
1532	XYZ
1533	XYZ
1534	XYZ
1535	XYZ
1536	XYZ
1537	XYZ
1538	XYZ
1539	XYZ
1540	XYZ
1541	XYZ
1542	XYZ
1543	XYZ
1544	XYZ
1545	XYZ
1546	XYZ
1547	XYZ
1548	XYZ
1549	XYZ
1550	XYZ
1551	XYZ
1552	XYZ
1553	XYZ
1554	XYZ
1555	XYZ
1556	XYZ
1557	XYZ
1558	XYZ
1559	XYZ
1560	XYZ
1561	XYZ
1562	XYZ
1563	XYZ
1564	XYZ
1565	XYZ
1566	XYZ
1567	XYZ
1568	XYZ
1569	XYZ
1570	XYZ
1571	XYZ
1572	XYZ
1573	XYZ
1574	XYZ
1575	XYZ
1576	XYZ
1577	XYZ
1578	XYZ
1579	XYZ
1580	XYZ
1581	XYZ
1582	XYZ
1583	XYZ
1584	XYZ
1585	XYZ
1586	XYZ
1587	XYZ
1588	XYZ
1589	XYZ
1590	XYZ
1591	XYZ
1592	XYZ
1593	XYZ
1594	XYZ
1595	XYZ
1596	XYZ
1597	XYZ
1598	XYZ
1599	XYZ
1600	XYZ
1601	XYZ
1602	XYZ
1603	XYZ
1604	XYZ
1605	XYZ
1606	XYZ
1607	XYZ
1608	XYZ
1609	XYZ
1610	XYZ
1611	XYZ
1612	XYZ
1613	XYZ
1614	XYZ
1615	XYZ
1616	XYZ
1617	XYZ
1618	XYZ
1619	XYZ
1620	XYZ
1621	XYZ
1622	XYZ
1623	XYZ
1624	XYZ
1625	XYZ
1626	XYZ
1627	XYZ
1628	XYZ
1629	XYZ
1630	XYZ
1631	XYZ
1632	XYZ
1633	XYZ
1634	XYZ
1635	XYZ
1636	XYZ
1637	XYZ
1638	XYZ
1639	XYZ
1640	XYZ
1641	XYZ
1642	XYZ
1643	XYZ
1644	XYZ
1645	XYZ
1646	XYZ
1647	XYZ
1648	XYZ
1649	XYZ
1650	XYZ
1651	XYZ
1652	XYZ
1653	XYZ
1654	XYZ
1655	XYZ
1656	XYZ
1657	XYZ
1658	XYZ
1659	XYZ
1660	XYZ
1661	XYZ
1662	XYZ
1663	XYZ
1664	XYZ
1665	XYZ
1666	XYZ
1667	XYZ
1668	XYZ
1669	XYZ
1670	XYZ
1671	XYZ
1672	XYZ
1673	XYZ
1674	XYZ
1675	XYZ
1676	XYZ
1677	XYZ
1678	XYZ
1679	XYZ
1680	XYZ
1681	XYZ
1682	XYZ
1683	XYZ
1684	XYZ
1685	XYZ
1686	XYZ
1687	XYZ
1688	XYZ
1689	XYZ
1690	XYZ
1691	XYZ
1692	XYZ
1693	XYZ
1694	XYZ
1695	XYZ
1696	XYZ
1697	XYZ
1698	XYZ
1699	XYZ
1700	XYZ
1701	XYZ
1702	XYZ
1703	XYZ
1704	XYZ
1705	XYZ
1706	XYZ
1707	XYZ
1708	XYZ
1709	XYZ
1710	XYZ
1711	XYZ
1712	XYZ
1713	XYZ
1714	XYZ
1715	XYZ
1716	XYZ
1717	XYZ
1718	XYZ
1719	XYZ
1720	XYZ
1721	XYZ
1722	XYZ
1723	XYZ
1724	XYZ
1725	XYZ
1726	XYZ
1727	XYZ
1728	XYZ
1729	XYZ
1730	XYZ
1731	XYZ
1732	XYZ
1733	XYZ
1734	XYZ
1735	XYZ
1736	XYZ
1737	XYZ
1738	XYZ
1739	XYZ
1740	XYZ
1741	XYZ
1742	XYZ
1743	XYZ
1744	XYZ
1745	XYZ
1746	XYZ
1747	XYZ
1748	XYZ
1749	XYZ
1750	XYZ
1751	XYZ
1752	XYZ
1753	XYZ
1754	XYZ
1755	XYZ
1756	XYZ
1757	XYZ
1758	XYZ
1759	XYZ
1760	XYZ
1761	XYZ
1762	XYZ
1763	XYZ
1764	XYZ
1765	XYZ
1766	XYZ
1767	XYZ
1768	XYZ
1769	XYZ
1770	XYZ
1771	XYZ
1772	XYZ
1773	XYZ
1774	XYZ
1775	XYZ
1776	XYZ
1777	XYZ
1778	XYZ
1779	XYZ
1780	XYZ
1781	XYZ
1782	XYZ
1783	XYZ
1784	XYZ
1785	XYZ
1786	XYZ
1787	XYZ
1788	XYZ
1789	XYZ
1790	XYZ
1791	XYZ
1792	XYZ
1793	XYZ
1794	XYZ
1795	XYZ
1796	XYZ
1797	XYZ
1798	XYZ
1799	XYZ
1800	XYZ
1801	XYZ
1802	XYZ
1803	XYZ
1804	XYZ
1805	XYZ
1806	XYZ
1807	XYZ
1808	XYZ
1809	XYZ
1810	XYZ
1811	XYZ
1812	XYZ
1813	XYZ
1814	XYZ
1815	XYZ
1816	XYZ
1817	XYZ
1818	XYZ
1819	XYZ
1820	XYZ
1821	XYZ
1822	XYZ
1823	XYZ
1824	XYZ
1825	XYZ
1826	XYZ
1827	XYZ
1828	XYZ
1829	XYZ
1830	XYZ
1831	XYZ
1832	XYZ
1833	XYZ
1834	XYZ
1835	XYZ
1836	XYZ
1837	XYZ
1838	XYZ
1839	XYZ
1840	XYZ
1841	XYZ
1842	XYZ
1843	XYZ
1844	XYZ
1845	XYZ
1846	XYZ
1847	XYZ
1848	XYZ
1849	XYZ
1850	XYZ
1851	XYZ
1852	XYZ
1853	XYZ
1854	XYZ
1855	XYZ
1856	XYZ
1857	XYZ
1858	XYZ
1859	XYZ
1860	XYZ
1861	XYZ
1862	XYZ
1863	XYZ
1864	XYZ
1865	XYZ
1866	XYZ
1867	XYZ
1868	XYZ
1869	XYZ
1870	XYZ
1871	XYZ
1872	XYZ
1873	XYZ
1874	XYZ
1875	XYZ
1876	XYZ
1877	XYZ
1878	XYZ
1879	XYZ
1880	XYZ
1881	XYZ
1882	XYZ
1883	XYZ
1884	XYZ
1885	XYZ
1886	XYZ
1887	XYZ
1888	XYZ
1889	XYZ
1890	XYZ
1891	XYZ
1892	XYZ
1893	XYZ
1894	XYZ
1895	XYZ
1896	XYZ
1897	XYZ
1898	XYZ
1899	XYZ
1900	XYZ
1901	XYZ
1902	XYZ
1903	XYZ
1904	XYZ
1905	XYZ
1906	XYZ
1907	XYZ
1908	XYZ
1909	XYZ
1910	XYZ
1911	XYZ
1912	XYZ
1913	XYZ
1914	XYZ
1915	XYZ
1916	XYZ
1917	XYZ
1918	XYZ
1919	XYZ
1920	XYZ
1921	XYZ
1922	XYZ
1923	XYZ
1924	XYZ
1925	XYZ
1926	XYZ
1927	XYZ
1928	XYZ
1929	XYZ
1930	XYZ
1931	XYZ
1932	XYZ
1933	XYZ
1934	XYZ
1935	XYZ
1936	XYZ
1937	XYZ
1938	XYZ
1939	XYZ
1940	XYZ
1941	XYZ
1942	XYZ
1943	XYZ
1944	XYZ
1945	XYZ
1946	XYZ
1947	XYZ
1948	XYZ
1949	XYZ
1950	XYZ
1951	XYZ
1952	XYZ
1953	XYZ
1954	XYZ
1955	XYZ
1956	XYZ
1957	XYZ
1958	XYZ
1959	XYZ
1960	XYZ
1961	XYZ
1962	XYZ
1963	XYZ
1964	XYZ
1965	XYZ
1966	XYZ
1967	XYZ
1968	XYZ
1969	XYZ
1970	XYZ
1971	XYZ
1972	XYZ
1973	XYZ
1974	XYZ
1975	XYZ
1976	XYZ
1977	XYZ
1978	XYZ
1979	XYZ
1980	XYZ
1981	XYZ
1982	XYZ
1983	XYZ
1984	XYZ
1985	XYZ
1986	XYZ
1987	XYZ
1988	XYZ
1989	XYZ
1990	XYZ
1991	XYZ
1992	XYZ
1993	XYZ
1994	XYZ
1995	XYZ
1996	XYZ
1997	XYZ
1998	XYZ
1999	XYZ
2000	XYZ
2001	XYZ
2002	XYZ
2003	XYZ
2004	XYZ
2005	XYZ
2006	XYZ
2007	XYZ
2008	XYZ
2009	XYZ
2010	XYZ
2011	XYZ
2012	XYZ
2013	XYZ
2014	XYZ
2015	XYZ
2016	XYZ
2017	XYZ
2018	XYZ
2019	XYZ
2020	XYZ
2021	XYZ
2022	XYZ
2023	XYZ
2024	XYZ
2025	XYZ
2026	XYZ
2027	XYZ
2028	XYZ
2029	XYZ
2030	XYZ
2031	XYZ
2032	XYZ
2033	XYZ
2034	XYZ
2035	XYZ
2036	XYZ
2037	XYZ
2038	XYZ
2039	XYZ
2040	XYZ
2041	XYZ
2042	XYZ
2043	XYZ
2044	XYZ
2045	XYZ
2046	XYZ
2047	XYZ
2048	XYZ
2049	XYZ
2050	XYZ
2051	XYZ
2052	XYZ
2053	XYZ
2054	XYZ
2055	XYZ
2056	XYZ
2057	XYZ
2058	XYZ
2059	XYZ
2060	XYZ
2061	XYZ
2062	XYZ
2063	XYZ
2064	XYZ
2065	XYZ
2066	XYZ
2067	XYZ
2068	XYZ
2069	XYZ
2070	XYZ
2071	XYZ
2072	XYZ
2073	XYZ
2074	XYZ
2075	XYZ
2076	XYZ
2077	XYZ
2078	XYZ
2079	XYZ
2080	XYZ
2081	XYZ
2082	XYZ
2083	XYZ
2084	XYZ
2085	XYZ
2086	XYZ
2087	XYZ
2088	XYZ
2089	XYZ
2090	XYZ
2091	XYZ
2092	XYZ
2093	XYZ
2094	XYZ
2095	XYZ
2096	XYZ
2097	XYZ
2098	XYZ
2099	XYZ
2100	XYZ
2101	XYZ
2102	XYZ
2103	XYZ
2104	XYZ
2105	XYZ
2106	XYZ
2107	XYZ
2108	XYZ
2109	XYZ
2110	XYZ
2111	XYZ
2112	XYZ
2113	XYZ
2114	XYZ
2115	XYZ
2116	XYZ
2117	XYZ
2118	XYZ
2119	XYZ
2120	XYZ
2121	XYZ
2122	XYZ
2123	XYZ
2124	XYZ
2125	XYZ
2126	XYZ
2127	XYZ
2128	XYZ
2129	XYZ
2130	XYZ
2131	XYZ
2132	XYZ
2133	XYZ
2134	XYZ
2135	XYZ
2136	XYZ
2137	XYZ
2138	XYZ
2139	XYZ
2140	XYZ
2141	XYZ
2142	XYZ
2143	XYZ
2144	XYZ
2145	XYZ
2146	XYZ
2147	XYZ
2148	XYZ
2149	XYZ
2150	XYZ
2151	XYZ
2152	XYZ
2153	XYZ
2154	XYZ
2155	XYZ
2156	XYZ
2157	XYZ
2158	XYZ
2159	XYZ
2160	XYZ
2161	XYZ
2162	XYZ
2163	XYZ
2164	XYZ
2165	XYZ
2166	XYZ
2167	XYZ
2168	XYZ
2169	XYZ
2170	XYZ
2171	XYZ
2172	XYZ
2173	XYZ
2174	XYZ
2175	XYZ
2176	XYZ
2177	XYZ
2178	XYZ
2179	XYZ
2180	XYZ
2181	XYZ
2182	XYZ
2183	XYZ
2184	XYZ
2185	XYZ
2186    XYZ
2187    XYZ
2188    XYZ
2189    XYZ
2190    XYZ
endfixed
$end


$force_field_params
NumAtomTypes   3000
AtomType   -1   -0.35   1.77   -0.018
AtomType   -13   -0.35   1.77   -0.018
AtomType   -2   0.7   2.2   -0.047
AtomType   -3   -0.175   0.01   0
AtomType   -4    0.175   0.01   0
AtomType   -23   0.525   2.2   -0.047
AtomType   -22   0.35   2.2   -0.047
AtomType   -21   0.175   2.2   -0.047
AtomType   -111   0   1.34   -0.024
AtomType   -112   0   1.34   -0.035
AtomType   -121   0   2.05   -0.078
AtomType   -122   0   2.01   -0.056
AtomType   -912   0   2.175   -0.055
AtomType   -916   0   1.77   -0.1521
AtomType   -901   0   1.32   -0.022
AtomType   -801   0   0.2245   -0.046
AtomType    -31 0   1.9924  -0.07
AtomType    -32 0   2.09    -0.068
AtomType    -33 0   2.08    -0.064
AtomType    -34 0   1.87    -0.18
AtomType    -35 0   2.00    -0.032
AtomType    -41 0   0.2245  -0.046
AtomType    -42 0   0.87    -0.012
AtomType    -43 0   1.1 -0.046
AtomType    -44 0   1.3582  -0.03
AtomType    -45 0   1.26    -0.026
AtomType    -46 0   1.25    -0.031
AtomType    -47 0   1.34    -0.045
AtomType    -51 0   1.765   -0.1921
AtomType    -61 0   1.98    -0.07
AtomType    -62 0   1.89    -0.06
AtomType    -63 0   1.79    -0.18
Bond   -1   -2   304   1.682
Bond   -1   -3   204   1.489
Bond   -2   -3   100   1.45
Angle   -1   -2   -1   34   150
Angle   -2   -1   -2   30   121.5
Angle   -3   -1   -2   44   118
Angle   -1   -2   -3   30   109.5
Torsion   -2   -1   -2   -1   0.1   120   3
Torsion   -2   -1   -2   -3   0.3   120   3
Bond   -121   -122   222.5   1.528
Bond   -121   -121   222.5   1.528
Bond   -122   -122   222.5   1.528
Bond   -111   -121   309   1.089
Bond   -112   -122   309   1.089
Angle   -121   -122   -122   58   115
Angle   -121   -121   -122   58   115
Angle   -121   -121   -121   58   115
Angle   -122   -122   -122   58   115
Angle   -111   -121   -111   35.5   108.4
Angle   -111   -121   -121   35.5   108.4
Angle   -111   -121   -122   35.5   108.4
Angle   -112   -122   -112   35.5   108.4
Angle   -112   -122   -121   35.5   108.4
Angle   -112   -122   -122   35.5   108.4
Torsion   -111   -121   -122   -122   0.16   120   3
Torsion   -111   -121   -121   -121   0.16   120   3
Torsion   -111   -121   -121   -111   0.16   120   3
Torsion   -111   -121   -122   -112   0.16   120   3
Torsion   -112   -122   -122   -122   95.16   180   2
Torsion   -112   -122   -122   -112   95.16   180   2
Torsion   -121   -122   -122   -122   95.16   180   2
Torsion   -121   -122   -122   -112   95.16   180   2
Torsion   -122   -122   -122   -112   95.16   180   2
Torsion   -112   -122   -122   -121   95.16   180   2
Bond   -13   -1   304   1.682
Bond   -13   -121   222.5   1.55
Angle   -13   -121   -121   40   111
Angle   -13   -121   -1   34   150
Angle   -13   -121   -111   35.5   115
Torsion   -1   -13   -121   -121   0.2   120   3
Torsion   -1   -13   -121   -111   0.2   120   3
Bond   -901   -912   342.991   1.093
Bond   -801   -916   560.905   0.972
Bond   -916   -912   363.214   1.418
Bond   -912   -912   306.432   1.508
Angle   -916   -912   -912   71.39   108.133
Angle   -916   -912   -916   83.192   111.368
Angle   -916   -912   -901   56.205   108.577
Angle   -912   -912   -901   45.77   110.549
Angle   -912   -916   -912   86.143   106.926
Angle   -912   -912   -912   61.243   109.608
Angle   -912   -916   -801   57.069   106.503
Angle   -901   -912   -901   37.134   108.836
Torsion   -912   -916   -912   -912   -0.341   0   1
Torsion   -912   -916   -912   -912   0.378   180   2
Torsion   -912   -916   -912   -912   0.378   0   3
Torsion   -912   -916   -912   -901   0.285   0   1
Torsion   -912   -916   -912   -901   0.16   180   2
Torsion   -912   -916   -912   -901   0.285   0   3
Torsion   -912   -912   -912   -912   0.051   0   1
Torsion   -912   -912   -912   -912   0.341   180   2
Torsion   -912   -912   -912   -912   0.166   0   3
Torsion   -912   -912   -912   -916   -0.344   0   1
Torsion   -912   -912   -912   -916   0.878   180   2
Torsion   -912   -912   -912   -916   0.238   0   3
Torsion   -912   -912   -912   -901   0.32   0   1
Torsion   -912   -912   -912   -901   -0.315   180   2
Torsion   -912   -912   -912   -901   0.132   0   3
Torsion   -912   -912   -916   -801   0.135   180   2
Torsion   -912   -912   -916   -801   0.118   0   3
Torsion   -916   -912   -912   -916   0.204   0   1
Torsion   -916   -912   -912   -916   0.699   180   2
Torsion   -916   -912   -912   -916   0.48   0   3
Torsion   -916   -912   -912   -901   -0.327   0   1
Torsion   -916   -912   -912   -901   0.536   180   2
Torsion   -916   -912   -912   -901   0.14   0   3
Torsion   -916   -912   -916   -801   0.744   0   1
Torsion   -916   -912   -916   -801   -1.7   180   2
Torsion   -916   -912   -916   -801   -0.16   0   3
Torsion   -912   -916   -912   -916   0.115   0   1
Torsion   -912   -916   -912   -916   -0.355   180   2
Torsion   -912   -916   -912   -916   0.361   0   3
Torsion   -901   -912   -912   -901   0.142   0   1
Torsion   -901   -912   -912   -901   -0.693   180   2
Torsion   -901   -912   -912   -901   0.157   0   3
Torsion   -901   -912   -916   -801   0.298   0   1
Torsion   -901   -912   -916   -801   -0.138   180   2
Torsion   -901   -912   -916   -801   0.173   0   3
Imptor	-912   -912   -916   -916       0.000  0     0.00
Imptor	-912   -916   -916   -901     0.000  0     0.00
Imptor	-912   -912   -916   -912       0.000  0     0.00
Imptor	-912   -912   -916   -901     0.000  0     0.00
Imptor	-912   -912   -912   -916       0.000  0     0.00
Imptor	-912   -912   -912   -901     0.000  0     0.00
Imptor	-912   -916   -912   -901     0.000  0     0.00
$end

$molecule
0 1
H         0.3762659852    4.1664637996   -4.4031365929     0	 2	 0	 0	 0
C        -0.1955280397    3.5418818825   -5.1056629359     0	 1	 3	 4	 5
H        -0.8910814810    4.1512636528   -5.7034021036     0	 2	 0	 0	 0
H         0.5146767399    3.0703426265   -5.7962430021     0	 2	 0	 0	 0
H        -0.7353592807    2.7520898185   -4.5673306862     0	 2	 0	 0	 0
H        -1.4567011464    4.7754468146   -3.8190549385     0	 10	 0	 0	 0
Al       -1.3651224704    6.1539943733   -1.8795464357     0	 9	 10	 11	 8
O        -1.9473678094    5.4680146889   -0.4221302943     0	 13	 7	 0	 0
O         0.2321898401    5.7610692815   -2.3228745166     0	 14	 7	 0	 0
O        -2.1508972335    5.1598011954   -3.2504457956     0	 12	 6	 7	 0
O        -1.8284560348    7.7738344366   -2.1794639339     0	 7	 15	 0	 0
Si       -3.7022419520    4.5248159100   -3.4445353145     0	 17	 10	 18	 16
Si       -2.9402351286    5.8619104710    0.7878192686     0	 60	 19	 20	 8
Si        1.7886532443    6.0286281731   -2.1006496648     0	 9	 44	 21	 22
Si       -1.3242804045    9.2323658019   -1.7112177212     0	 11	 61	 23	 24
O        -3.4043638782    2.9605717147   -3.7109387132     0	 25	 12	 0	 0
O        -4.5715840597    4.8094862481   -2.1207546335     0	 26	 12	 0	 0
O        -4.3164401383    5.2444250476   -4.7541239076     0	 27	 12	 0	 0
O        -4.3872114248    5.1028302402    0.5698050259     0	 26	 13	 0	 0
O        -3.2175520426    7.4785116075    0.8309533696     0	 28	 13	 0	 0
O         2.2167045155    7.5992890672   -2.2721296595     0	 29	 14	 0	 0
O         2.5690757719    5.1934161535   -3.2577169582     0	 30	 14	 0	 0
O        -2.1049748759    9.6864717255   -0.3425113009     0	 28	 15	 0	 0
O         0.2929660010    9.2221388919   -1.3731306088     0	 29	 15	 0	 0
Si       -3.8023048588    1.3708167298   -3.7690356424     0	 68	 16	 38	 32
Si       -5.1551224077    4.3287668497   -0.6281860398     0	 17	 19	 70	 71
Si       -5.2419468780    4.9236709840   -6.0781805236     0	 74	 18	 75	 39
Si       -2.7448906747    9.0378467374    1.0169390366     0	 20	 62	 23	 72
Si        1.8745823114    9.1186039025   -1.7693702150     0	 73	 21	 47	 24
Si        3.8556183504    4.2917484995   -3.5915726061     0	 49	 37	 22	 48
Si       -1.6591957022   -0.3022646343   -5.2343931316     0	 65	 35	 33	 32
O        -2.4550401671    0.5101002742   -4.0616696017     0	 25	 31	 0	 0
O        -2.1768589978    0.1914042314   -6.7076537283     0	 43	 31	 0	 0
O        -4.5820021521    0.9858485220   -7.6312079217     0	 43	 40	 0	 0
O        -0.0859273779    0.0426244835   -5.0743727804     0	 42	 31	 0	 0
O         2.3594638002    0.3169014211   -4.1507552954     0	 41	 42	 0	 0
O         3.3572540196    2.7453935972   -3.7683834635     0	 41	 30	 0	 0
O        -4.8906701294    1.1762393499   -4.9763251641     0	 25	 40	 0	 0
O        -5.0296365240    3.3653324990   -6.5346082457     0	 27	 40	 0	 0
Si       -5.3662199870    1.7631048929   -6.4364996547     0	 34	 69	 38	 39
Si        3.7302453224    1.1624191760   -3.8823184463     0	 66	 36	 37	 46
Si        1.4605630816   -0.4146157912   -5.2873721838     0	 35	 36	 45	 67
Si       -3.2689067296    0.0502379742   -7.9277251488     0	 33	 34	 63	 64
O         2.2474368913    5.5075727902   -0.6101607742     0	 50	 14	 0	 0
O         1.9249196421    0.0372352961   -6.7910314989     0	 42	 55	 0	 0
O         4.7692744497    0.9430590559   -5.1345621243     0	 41	 57	 0	 0
O         2.7877841769    9.4559662909   -0.4531231509     0	 29	 53	 0	 0
O         4.9833370566    4.3717767875   -2.4140751398     0	 54	 30	 0	 0
O         4.4901864904    4.8510558119   -4.9732210561     0	 59	 30	 0	 0
Si        3.3475735924    5.6612401879    0.5923518545     0	 52	 76	 44	 51
O         3.8143993004    7.2233171063    0.7119588770     0	 50	 53	 0	 0
O         4.6558662658    4.7439405132    0.2600584105     0	 50	 54	 0	 0
Si        3.4438190805    8.8097407009    0.9013033796     0	 82	 51	 77	 47
Si        5.4473608270    3.9156235455   -0.9037884153     0	 83	 52	 78	 48
Si        2.9713645817   -0.1835765254   -8.0406982343     0	 79	 45	 80	 56
O         4.3650609042    0.6244930397   -7.7735952748     0	 57	 55	 0	 0
Si        5.2452845584    1.3947806146   -6.6384395025     0	 81	 58	 46	 56
O         5.0524236142    3.0044818107   -6.8408994657     0	 57	 59	 0	 0
Si        5.3693891153    4.5198496737   -6.3022570837     0	 49	 58	 84	 85
O        -2.3915544906    5.3164468325    2.1598950221    -1	 13	 86	 0	 0
O        -1.6335544906   10.2784468325   -2.8501049779    -1	 102	 15	 0	 0
O        -1.6335544906    9.0924468325    2.1618950221    -1	 28	 101	 0	 0
O        -2.6185544906    0.5674468325   -9.2741049779    -1	 43	 151	 0	 0
O        -3.7305544906   -1.4735531675   -8.0431049779    -1	 43	 295	 0	 0
O        -1.9255544906   -1.8625531675   -5.0411049779    -1	 292	 31	 0	 0
O         4.3514455094    0.6254468325   -2.5341049779    -1	 41	 196	 0	 0
O         1.5954455094   -1.9935531675   -5.1071049779    -1	 42	 269	 0	 0
O        -4.3825544906    0.9494468325   -2.3731049779    -1	 25	 375	 0	 0
O        -6.9095544906    1.4944468325   -6.5741049779    -1	 240	 40	 0	 0
O        -6.6765544906    4.7484468325   -0.5011049779    -1	 26	 244	 0	 0
O        -4.9875544906    2.7324468325   -0.5361049779    -1	 26	 375	 0	 0
O        -4.0075544906    9.9194468325    1.3938950221    -1	 282	 28	 0	 0
O         2.2854455094   10.1314468325   -2.9211049779    -1	 29	 304	 0	 0
O        -4.7945544906    5.9124468325   -7.2381049779    -1	 27	 381	 0	 0
O        -6.7555544906    5.1684468325   -5.6541049779    -1	 385	 27	 0	 0
O         2.7304455094    5.1254468325    1.9528950221    -1	 50	 87	 0	 0
O         2.3834455094    8.9434468325    2.0868950221    -1	 89	 53	 0	 0
O         5.1544455094    2.3564468325   -0.7241049779    -1	 196	 54	 0	 0
O         2.3104455094    0.3844468325   -9.3651049779    -1	 207	 55	 0	 0
O         3.3114455094   -1.7355531675   -8.1741049779    -1	 55	 272	 0	 0
O         6.7534455094    0.9874468325   -6.8281049779    -1	 57	 223	 0	 0
O         4.7834455094    9.5944468325    1.2318950221    -1	 226	 53	 0	 0
O         6.9864455094    4.2414468325   -0.7541049779    -1	 230	 54	 0	 0
O         6.9074455094    4.6614468325   -5.9081049779    -1	 369	 59	 0	 0
O         4.9494455094    5.5524468325   -7.4211049779    -1	 59	 371	 0	 0
Si       -1.3095544906    5.5674468325    3.3398950221    -23	 90	 60	 93	 94
Si        1.8124455094    5.4434468325    3.2428950221    -23	 90	 92	 76	 91
Si        1.7784455094    3.3794468325    5.5768950221    -2	 97	 91	 95	 96
Si        1.9354455094    8.5484468325    3.5808950221    -23	 98	 99	 92	 77
O         0.2364455094    5.2944468325    2.8578950221    -1	 86	 87	 0	 0
O         2.2424455094    4.4004468325    4.3988950221    -1	 87	 88	 0	 0
O         2.1064455094    6.9364468325    3.8098950221    -1	 89	 87	 0	 0
O        -1.7095544906    4.5494468325    4.4808950221    -1	 100	 86	 0	 0
O        -1.4285544906    7.0814468325    3.8468950221    -1	 101	 86	 0	 0
O         1.9274455094    1.8704468325    5.0428950221    -1	 103	 88	 0	 0
O         2.7304455094    3.6004468325    6.8538950221    -1	 104	 88	 0	 0
O         0.2474455094    3.6584468325    5.9938950221    -1	 100	 88	 0	 0
O         0.4034455094    8.9674468325    3.8158950221    -1	 89	 101	 0	 0
O         2.8714455094    9.3054468325    4.6448950221    -1	 89	 105	 0	 0
Si       -1.3125544906    3.4964468325    5.6338950221    -2	 97	 106	 107	 93
Si       -1.1645544906    8.6554468325    3.6378950221    -23	 108	 98	 62	 94
Si       -1.2015544906   11.2994468325   -4.0171049779    -23	 305	 61	 350	 351
Si        1.6624455094    0.2964468325    5.2518950221    -2	 329	 257	 95	 330
Si        3.3664455094    3.0384468325    8.2198950221    -2	 365	 332	 360	 96
Si        4.2114455094   10.1324468325    4.9868950221    -2	 99	 229	 358	 359
O        -2.1985544906    3.7834468325    6.9448950221    -1	 100	 109	 0	 0
O        -1.5935544906    2.0004468325    5.1088950221    -1	 100	 110	 0	 0
O        -2.0005544906    9.4874468325    4.7358950221    -1	 101	 111	 0	 0
Si       -2.8235544906    3.2684468325    8.3348950221    -2	 106	 387	 388	 392
Si       -1.4385544906    0.4114468325    5.3098950221    -2	 329	 107	 404	 192
Si       -3.2605544906   10.4094468325    5.1258950221    -2	 193	 194	 195	 108
O         2.2984455094   -5.3675531675    3.0868950221    -1	 115	 308	 0	 0
O        -0.1695544906   -5.7055531675    2.2588950221    -1	 115	 142	 0	 0
O         1.5194455094   -7.7225531675    2.2238950221    -1	 115	 116	 0	 0
Si        1.3644455094   -6.1325531675    2.0228950221    -2	 113	 114	 124	 112
Si        1.2374455094   -9.2175531675    1.6998950221    -2	 114	 123	 117	 122
O         1.6354455094  -10.2705531675    2.8518950221    -1	 116	 118	 0	 0
Si        1.2034455094  -11.2925531675    4.0188950221    -2	 121	 117	 119	 120
O         1.3534455094  -12.8035531675    3.4858950221    -1	 1580	 118	 0	 0
O         2.1574455094  -11.0725531675    5.2968950221    -1	 870	 118	 0	 0
O        -0.3255544906  -11.0155531675    4.4368950221    -1	 147	 118	 0	 0
O         2.1244455094   -9.5055531675    0.3868950221    -1	 116	 287	 0	 0
O        -0.3225544906   -9.3795531675    1.3388950221    -1	 145	 116	 0	 0
O         1.8094455094   -5.7305531675    0.5298950221    -1	 115	 285	 0	 0
Si       -3.8335544906   -4.2635531675    3.5688950221    -2	 129	 126	 127	 128
O        -2.5735544906   -5.1865531675    3.1788950221    -1	 125	 142	 0	 0
O        -3.3475544906   -2.7375531675    3.7278950221    -1	 185	 125	 0	 0
O        -4.9475544906   -4.3595531675    2.4108950221    -1	 338	 125	 0	 0
O        -4.4585544906   -4.7795531675    4.9578950221    -1	 130	 125	 0	 0
Si       -5.3455544906   -4.4915531675    6.2698950221    -2	 129	 131	 132	 137
O        -5.0645544906   -2.9965531675    6.7948950221    -1	 130	 187	 0	 0
O        -6.9055544906   -4.6535531675    5.9098950221    -1	 130	 133	 0	 0
Si       -8.4345544906   -4.3765531675    6.3278950221    -2	 132	 134	 135	 136
O        -8.8665544906   -5.3985531675    7.4938950221    -1	 133	 776	 0	 0
O        -9.3875544906   -4.5965531675    5.0508950221    -1	 348	 133	 0	 0
O        -8.5855544906   -2.8655531675    6.8598950221    -1	 133	 190	 0	 0
O        -4.9475544906   -5.5445531675    7.4228950221    -1	 130	 138	 0	 0
Si       -5.3795544906   -6.5665531675    8.5898950221    -2	 137	 139	 140	 141
O        -6.9085544906   -6.2895531675    9.0068950221    -1	 138	 776	 0	 0
O        -4.4255544906   -6.3465531675    9.8678950221    -1	 138	 1907	 0	 0
O        -5.2295544906   -8.0775531675    8.0568950221    -1	 138	 1654	 0	 0
Si       -1.7375544906   -6.0175531675    2.0808950221    -2	 113	 126	 143	 144
O        -2.2075544906   -5.5815531675    0.6048950221    -1	 397	 142	 0	 0
O        -2.0015544906   -7.5915531675    2.2898950221    -1	 145	 142	 0	 0
Si       -1.8515544906   -9.1025531675    1.7568950221    -2	 146	 123	 150	 144
O        -2.2835544906  -10.1245531675    2.9238950221    -1	 145	 147	 0	 0
Si       -1.8855544906  -11.1775531675    4.0758950221    -2	 121	 146	 148	 149
O        -2.7715544906  -10.8895531675    5.3868950221    -1	 1451	 147	 0	 0
O        -2.1675544906  -12.6725531675    3.5518950221    -1	 147	 812	 0	 0
O        -2.8045544906   -9.3225531675    0.4798950221    -1	 145	 399	 0	 0
Si       -1.7325544906    0.2794468325  -10.5851049779       -23	 153	 154	 63	 152
O        -0.1725544906    0.4424468325  -10.2251049779       -1	 207	 151	 0	 0
O        -2.0145544906   -1.2155531675  -11.1101049779       -1	 297	 151	 0	 0
O        -2.1305544906    1.3324468325  -11.7371049779       -1	 963	 151	 0	 0
Si       -5.3035544906   -0.8375531675    1.2588950221    -2	 156	 157	 158	 159
O        -4.8715544906    0.1844468325    0.0918950221    -1	 155	 375	 0	 0
O        -4.3495544906   -0.6185531675    2.5368950221    -1	 185	 155	 0	 0
O        -5.1525544906   -2.3485531675    0.7258950221    -1	 338	 155	 0	 0
O        -6.8325544906   -0.5605531675    1.6768950221    -1	 155	 160	 0	 0
Si       -8.3925544906   -0.7225531675    1.3158950221    -2	 161	 167	 166	 159
O        -9.2785544906   -0.4355531675    2.6268950221    -1	 162	 160	 0	 0
Si       -9.9045544906   -0.9505531675    4.0178950221    -2	 161	 163	 164	 165
O        -8.7905544906   -0.8555531675    5.1758950221    -1	 162	 190	 0	 0
O       -11.1645544906   -0.0285531675    4.4078950221    -1	 162	 1327	 0	 0
O       -10.3895544906   -2.4765531675    3.8588950221    -1	 162	 348	 0	 0
O        -8.7905544906    0.3294468325    0.1638950221    -1	 377	 160	 0	 0
O        -8.6735544906   -2.2185531675    0.7918950221    -1	 341	 160	 0	 0
Si        5.1444455094   -4.3145531675    0.7388950221    -2	 169	 170	 171	 184
O         4.6984455094   -4.7165531675    2.2318950221    -1	 308	 168	 0	 0
O         4.2094455094   -5.0795531675   -0.3251049779    -1	 285	 168	 0	 0
O         6.6764455094   -4.7415531675    0.5028950221    -1	 172	 168	 0	 0
Si        8.2454455094   -4.4295531675    0.6808950221    -2	 179	 178	 171	 173
O         8.7154455094   -4.8665531675    2.1568950221    -1	 172	 174	 0	 0
Si        9.8294455094   -4.7705531675    3.3148950221    -2	 177	 173	 175	 176
O         9.2044455094   -5.2865531675    4.7048950221    -1	 317	 174	 0	 0
O        10.3154455094   -3.2445531675    3.4738950221    -1	 356	 174	 0	 0
O        11.0894455094   -5.6935531675    2.9248950221    -1	 1402	 174	 0	 0
O         8.5104455094   -2.8555531675    0.4728950221    -1	 354	 172	 0	 0
O         9.0824455094   -5.2615531675   -0.4161049779    -1	 172	 180	 0	 0
Si       10.3424455094   -6.1835531675   -0.8061049779    -2	 179	 181	 182	 183
O         9.8564455094   -7.7095531675   -0.9661049779    -1	 180	 1213	 0	 0
O        11.4564455094   -6.0885531675    0.3508950221    -1	 1402	 180	 0	 0
O        10.9674455094   -5.6675531675   -2.1971049779    -1	 180	 566	 0	 0
O         4.9894455094   -2.7255531675    0.5378950221    -1	 352	 168	 0	 0
Si       -3.7135544906   -1.1805531675    3.9028950221    -2	 186	 157	 127	 192
O        -4.7735544906   -1.0045531675    5.1008950221    -1	 185	 187	 0	 0
Si       -5.2185544906   -1.4065531675    6.5938950221    -2	 186	 131	 188	 189
O        -4.2835544906   -0.6415531675    7.6588950221    -1	 187	 405	 0	 0
O        -6.7525544906   -0.9795531675    6.8298950221    -1	 187	 190	 0	 0
Si       -8.3205544906   -1.2915531675    6.6518950221    -2	 163	 189	 191	 136
O        -9.1565544906   -0.4605531675    7.7498950221    -1	 972	 190	 0	 0
O        -2.3735544906   -0.3535531675    4.2448950221    -1	 185	 110	 0	 0
O        -3.8855544906    9.8944468325    6.5148950221    -1	 703	 111	 0	 0
O        -2.7745544906   11.9354468325    5.2848950221    -1	 1057	 111	 0	 0
O        -4.3745544906   10.3144468325    3.9678950221    -1	 282	 111	 0	 0
Si        5.3044455094    0.8444468325   -1.2571049779    -22	 66	 197	 78	 206
O         6.8344455094    0.5674468325   -1.6741049779    -1	 196	 198	 0	 0
Si        8.3944455094    0.7304468325   -1.3141049779    -2	 201	 197	 199	 200
O         8.7914455094   -0.3225531675   -0.1621049779    -1	 354	 198	 0	 0
O         8.6754455094    2.2254468325   -0.7891049779    -1	 198	 230	 0	 0
O         9.2804455094    0.4424468325   -2.6261049779    -1	 202	 198	 0	 0
Si        9.9054455094    0.9574468325   -4.0161049779    -2	 201	 203	 204	 205
O         8.7924455094    0.8624468325   -5.1731049779    -1	 202	 223	 0	 0
O        10.3914455094    2.4834468325   -3.8561049779    -1	 202	 237	 0	 0
O        11.1654455094    0.0354468325   -4.4061049779    -1	 1322	 202	 0	 0
O         4.8734455094   -0.1775531675   -0.0891049779    -1	 196	 352	 0	 0
Si        1.3564455094    0.1654468325  -10.6431049779       -23	 209	 208	 79	 152
O         1.5064455094   -1.3455531675  -11.1751049779       -1	 207	 279	 0	 0
O         1.7884455094    1.1874468325  -11.8101049779       -1	 1796	 207	 0	 0
Si        1.2804455094   -5.5635531675   -3.3121049779    -2	 211	 212	 221	 222
O         2.2334455094   -5.3435531675   -2.0341049779    -1	 210	 285	 0	 0
O         1.4304455094   -7.0745531675   -3.8451049779    -1	 210	 213	 0	 0
Si        1.1654455094   -8.6485531675   -3.6361049779    -2	 219	 220	 214	 212
O         2.0024455094   -9.4795531675   -4.7341049779    -1	 213	 215	 0	 0
Si        3.2624455094  -10.4025531675   -5.1241049779    -2	 217	 218	 214	 216
O         3.8874455094   -9.8865531675   -6.5141049779    -1	 1611	 215	 0	 0
O         2.7764455094  -11.9285531675   -5.2831049779    -1	 1419	 215	 0	 0
O         4.3764455094  -10.3075531675   -3.9661049779    -1	 289	 215	 0	 0
O         1.6354455094   -9.0845531675   -2.1601049779    -1	 213	 287	 0	 0
O        -0.4035544906   -8.9605531675   -3.8141049779    -1	 321	 213	 0	 0
O         1.7114455094   -4.5415531675   -4.4791049779    -1	 210	 269	 0	 0
O        -0.2495544906   -5.2865531675   -2.8941049779    -1	 210	 319	 0	 0
Si        8.3224455094    1.2994468325   -6.6491049779    -23	 81	 225	 203	 224
O         8.5864455094    2.8724468325   -6.8581049779    -1	 369	 223	 0	 0
O         9.1584455094    0.4674468325   -7.7471049779    -1	 459	 223	 0	 0
Si        5.7174455094   10.3594468325    2.2958950221    -23	 82	 227	 228	 229
O         7.2504455094    9.9314468325    2.0598950221    -1	 226	 1318	 0	 0
O         5.5624455094   11.9484468325    2.0948950221    -1	 226	 762	 0	 0
O         5.2714455094    9.9564468325    3.7888950221    -1	 105	 226	 0	 0
Si        8.5204455094    3.8144468325   -0.9901049779    -23	 83	 236	 231	 200
O         9.4554455094    4.5794468325    0.0738950221    -1	 230	 232	 0	 0
Si       10.7954455094    5.4064468325    0.4158950221    -2	 233	 234	 235	 231
O        11.8554455094    5.2304468325   -0.7821049779    -1	 1127	 232	 0	 0
O        11.4314455094    4.8444468325    1.7838950221    -1	 1811	 232	 0	 0
O        10.4294455094    6.9644468325    0.5908950221    -1	 689	 232	 0	 0
O         8.9664455094    4.2174468325   -2.4831049779    -1	 237	 230	 0	 0
Si       10.0264455094    4.0414468325   -3.6811049779    -2	 204	 238	 239	 236
O        11.3664455094    4.8684468325   -3.3391049779    -1	 237	 1127	 0	 0
O         9.3904455094    4.6034468325   -5.0471049779    -1	 369	 237	 0	 0
Si       -8.4425544906    1.9214468325   -6.3381049779    -23	 241	 242	 243	 69
O        -8.8885544906    1.5184468325   -4.8451049779    -1	 379	 240	 0	 0
O        -8.5975544906    3.5104468325   -6.5391049779    -1	 385	 240	 0	 0
O        -9.3775544906    1.1554468325   -7.4031049779    -1	 584	 240	 0	 0
Si       -8.2445544906    4.4364468325   -0.6791049779    -23	 250	 245	 70	 255
O        -9.0805544906    5.2684468325    0.4188950221    -1	 244	 246	 0	 0
Si      -10.3405544906    6.1904468325    0.8088950221    -2	 249	 245	 247	 248
O        -9.8545544906    7.7164468325    0.9678950221    -1	 859	 246	 0	 0
O       -10.9655544906    5.6754468325    2.1978950221    -1	 1956	 246	 0	 0
O       -11.4545544906    6.0954468325   -0.3491049779    -1	 525	 246	 0	 0
O        -8.7135544906    4.8734468325   -2.1551049779    -1	 251	 244	 0	 0
Si       -9.8275544906    4.7784468325   -3.3131049779    -2	 250	 252	 253	 254
O       -10.3135544906    3.2524468325   -3.4721049779    -1	 251	 379	 0	 0
O        -9.2015544906    5.2934468325   -4.7031049779    -1	 385	 251	 0	 0
O       -11.0875544906    5.7004468325   -2.9231049779    -1	 251	 525	 0	 0
O        -8.5085544906    2.8634468325   -0.4701049779    -1	 377	 244	 0	 0
Si        3.7594455094   -1.4575531675    3.7638950221    -2	 257	 258	 267	 268
O         2.4994455094   -0.5355531675    4.1538950221    -1	 103	 256	 0	 0
O         4.8724455094   -1.3625531675    4.9218950221    -1	 259	 256	 0	 0
Si        5.3424455094   -1.7985531675    6.3978950221    -2	 258	 260	 261	 266
O         4.5064455094   -0.9675531675    7.4958950221    -1	 259	 331	 0	 0
O         6.9104455094   -1.4865531675    6.5758950221    -1	 259	 262	 0	 0
Si        8.4444455094   -1.9135531675    6.3398950221    -2	 265	 261	 263	 264
O         9.3794455094   -1.1485531675    7.4048950221    -1	 981	 262	 0	 0
O         8.8894455094   -1.5115531675    4.8468950221    -1	 356	 262	 0	 0
O         8.5994455094   -3.5035531675    6.5408950221    -1	 317	 262	 0	 0
O         5.0784455094   -3.3725531675    6.6068950221    -1	 259	 310	 0	 0
O         4.3844455094   -0.9425531675    2.3738950221    -1	 256	 352	 0	 0
O         3.2734455094   -2.9835531675    3.6048950221    -1	 308	 256	 0	 0
Si        1.3144455094   -3.4885531675   -5.6311049779    -23	 67	 221	 270	 271
O        -0.2455544906   -3.6515531675   -5.9911049779    -1	 292	 269	 0	 0
O         2.2004455094   -3.7765531675   -6.9431049779    -1	 269	 272	 0	 0
Si        2.8254455094   -3.2615531675   -8.3331049779    -23	 273	 278	 271	 80
O         4.0854455094   -4.1835531675   -8.7231049779    -1	 274	 272	 0	 0
Si        4.9224455094   -5.0145531675   -9.8211049779    -2	 273	 275	 276	 277
O         4.4524455094   -4.5785531675  -11.2971049779       -1	 274	 1750	 0	 0
O         6.4894455094   -4.7025531675   -9.6421049779    -1	 569	 274	 0	 0
O         4.6574455094   -6.5885531675   -9.6121049779    -1	 274	 654	 0	 0
O         1.7114455094   -3.3565531675   -9.4911049779    -1	 279	 272	 0	 0
Si        1.2424455094   -2.9195531675  -10.9671049779       -2	 281	 208	 278	 280
O        -0.3265544906   -3.2315531675  -11.1451049779       -1	 297	 279	 0	 0
O         2.0784455094   -3.7515531675  -12.0641049779       -1	 1750	 279	 0	 0
Si       -4.8445544906   10.7504468325    2.4918950221    -23	 284	 195	 283	 72
O        -6.4135544906   10.4384468325    2.3138950221    -1	 282	 615	 0	 0
O        -4.5795544906   12.3244468325    2.2838950221    -1	 1633	 282	 0	 0
Si        2.8694455094   -5.9065531675   -0.6681049779    -2	 170	 211	 124	 286
O         3.2354455094   -7.4635531675   -0.8431049779    -1	 285	 287	 0	 0
Si        2.7494455094   -8.9895531675   -1.0021049779    -2	 122	 219	 286	 288
O         4.0094455094   -9.9125531675   -1.3921049779    -1	 289	 287	 0	 0
Si        4.8454455094  -10.7435531675   -2.4901049779    -2	 218	 291	 288	 290
O         6.4134455094  -10.4315531675   -2.3121049779    -1	 289	 1975	 0	 0
O         4.5814455094  -12.3175531675   -2.2811049779    -1	 289	 975	 0	 0
Si       -1.7755544906   -3.3745531675   -5.5741049779    -23	 65	 294	 293	 270
O        -2.2065544906   -4.3955531675   -4.4071049779    -1	 292	 319	 0	 0
O        -2.7285544906   -3.5935531675   -6.8511049779    -1	 292	 295	 0	 0
Si       -3.3655544906   -3.0315531675   -8.2181049779    -23	 296	 299	 294	 64
O        -2.3055544906   -3.2075531675   -9.4161049779    -1	 297	 295	 0	 0
Si       -1.8595544906   -2.8045531675  -10.9091049779       -2	 153	 298	 296	 280
O        -2.7935544906   -3.5695531675  -11.9731049779       -1	 297	 1567	 0	 0
O        -4.7055544906   -3.8585531675   -8.5611049779    -1	 300	 295	 0	 0
Si       -5.6395544906   -4.6235531675   -9.6251049779    -2	 299	 301	 302	 303
O        -7.1735544906   -4.1955531675   -9.3891049779    -1	 300	 1215	 0	 0
O        -5.4845544906   -6.2125531675   -9.4241049779    -1	 300	 1428	 0	 0
O        -5.1935544906   -4.2205531675  -11.1181049779       -1	 300	 1567	 0	 0
Si        1.8874455094   11.1844468325   -4.0741049779    -23	 73	 306	 305	 307
O         0.3274455094   11.0224468325   -4.4341049779    -1	 102	 304	 0	 0
O         2.7744455094   10.8974468325   -5.3861049779    -1	 1804	 304	 0	 0
O         2.1684455094   12.6804468325   -3.5491049779    -1	 840	 304	 0	 0
Si        3.6384455094   -4.5415531675    3.4298950221    -2	 169	 268	 309	 112
O         4.2754455094   -5.1035531675    4.7968950221    -1	 308	 310	 0	 0
Si        5.2284455094   -4.8835531675    6.0738950221    -2	 266	 316	 309	 311
O         4.7964455094   -5.9055531675    7.2408950221    -1	 310	 312	 0	 0
Si        5.1944455094   -6.9585531675    8.3938950221    -2	 313	 314	 315	 311
O         6.7544455094   -6.7965531675    8.7538950221    -1	 936	 312	 0	 0
O         4.3084455094   -6.6705531675    9.7048950221    -1	 725	 312	 0	 0
O         4.9124455094   -8.4535531675    7.8688950221    -1	 1816	 312	 0	 0
O         6.7574455094   -5.1605531675    5.6568950221    -1	 317	 310	 0	 0
Si        8.3174455094   -4.9985531675    6.0168950221    -2	 265	 316	 318	 175
O         8.7154455094   -6.0515531675    7.1688950221    -1	 317	 936	 0	 0
Si       -1.8095544906   -5.4485531675   -3.2541049779    -2	 320	 293	 222	 328
O        -2.0905544906   -6.9435531675   -3.7791049779    -1	 321	 319	 0	 0
Si       -1.9355544906   -8.5335531675   -3.5781049779    -2	 322	 220	 327	 320
O        -2.8705544906   -9.2985531675   -4.6421049779    -1	 321	 323	 0	 0
Si       -4.2105544906  -10.1255531675   -4.9851049779    -2	 322	 324	 325	 326
O        -5.2705544906   -9.9495531675   -3.7871049779    -1	 401	 323	 0	 0
O        -3.8445544906  -11.6825531675   -5.1601049779    -1	 323	 1463	 0	 0
O        -4.8465544906   -9.5625531675   -6.3511049779    -1	 323	 1885	 0	 0
O        -2.3815544906   -8.9355531675   -2.0851049779    -1	 321	 399	 0	 0
O        -2.6955544906   -5.1605531675   -1.9431049779    -1	 397	 319	 0	 0
O         0.0934455094   -0.0155531675    5.0738950221    -1	 110	 103	 0	 0
O         2.1324455094   -0.1405531675    6.7278950221    -1	 331	 103	 0	 0
Si        3.2464455094   -0.0445531675    7.8858950221    -2	 260	 330	 332	 333
O         3.7324455094    1.4814468325    8.0448950221    -1	 331	 104	 0	 0
O         2.6214455094   -0.5605531675    9.2748950221    -1	 331	 334	 0	 0
Si        1.7344455094   -0.2725531675   10.5878950221       -2	 337	 333	 335	 336
O         0.1744455094   -0.4345531675   10.2268950221       -1	 334	 407	 0	 0
O         2.1324455094   -1.3255531675   11.7398950221       -1	 334	 1152	 0	 0
O         2.0154455094    1.2224468325   11.1118950221       -1	 366	 334	 0	 0
Si       -5.4175544906   -3.9225531675    0.9348950221    -2	 339	 340	 158	 128
O        -4.5815544906   -4.7545531675   -0.1631049779    -1	 338	 397	 0	 0
O        -6.9865544906   -4.2345531675    0.7568950221    -1	 338	 341	 0	 0
Si       -8.5185544906   -3.8075531675    0.9928950221    -2	 347	 340	 342	 167
O        -9.4535544906   -4.5725531675   -0.0711049779    -1	 341	 343	 0	 0
Si      -10.7935544906   -5.3995531675   -0.4141049779    -2	 345	 346	 342	 344
O       -11.8535544906   -5.2235531675    0.7838950221    -1	 1226	 343	 0	 0
O       -10.4285544906   -6.9565531675   -0.5891049779    -1	 1571	 343	 0	 0
O       -11.4295544906   -4.8365531675   -1.7801049779    -1	 1553	 343	 0	 0
O        -8.9645544906   -4.2095531675    2.4858950221    -1	 348	 341	 0	 0
Si      -10.0245544906   -4.0345531675    3.6838950221    -2	 347	 165	 135	 349
O       -11.3645544906   -4.8605531675    3.3408950221    -1	 1226	 348	 0	 0
O        -2.1545544906   11.0794468325   -5.2941049779    -1	 102	 1143	 0	 0
O        -1.3525544906   12.8104468325   -3.4841049779    -1	 102	 1647	 0	 0
Si        5.2704455094   -1.2295531675    1.0628950221    -2	 353	 267	 206	 184
O         6.8304455094   -1.0675531675    1.4228950221    -1	 354	 352	 0	 0
Si        8.3604455094   -1.3445531675    1.0048950221    -2	 353	 178	 355	 199
O         9.3134455094   -1.1255531675    2.2828950221    -1	 354	 356	 0	 0
Si        9.9504455094   -1.6875531675    3.6488950221    -2	 357	 355	 264	 176
O        11.2894455094   -0.8605531675    3.9918950221    -1	 473	 356	 0	 0
O         3.8464455094   11.6894468325    5.1618950221    -1	 105	 1241	 0	 0
O         4.8484455094    9.5704468325    6.3538950221    -1	 105	 1055	 0	 0
O         4.7064455094    3.8654468325    8.5628950221    -1	 361	 104	 0	 0
Si        5.6414455094    4.6304468325    9.6268950221    -2	 362	 363	 364	 360
O         5.1954455094    4.2274468325   11.1198950221       -1	 361	 990	 0	 0
O         7.1734455094    4.2034468325    9.3908950221    -1	 361	 1003	 0	 0
O         5.4864455094    6.2194468325    9.4258950221    -1	 361	 1870	 0	 0
O         2.3064455094    3.2144468325    9.4178950221    -1	 366	 104	 0	 0
Si        1.8614455094    2.8114468325   10.9108950221       -2	 337	 365	 367	 368
O         2.7954455094    3.5764468325   11.9748950221       -1	 990	 366	 0	 0
O         0.3274455094    3.2394468325   11.1468950221       -1	 389	 366	 0	 0
Si        8.4364455094    4.3844468325   -6.3251049779    -23	 370	 84	 239	 224
O         8.8684455094    5.4054468325   -7.4921049779    -1	 369	 571	 0	 0
Si        5.3814455094    6.5734468325   -8.5881049779    -23	 373	 372	 85	 374
O         4.4284455094    6.3534468325   -9.8641049779    -1	 371	 1645	 0	 0
O         6.9104455094    6.2964468325   -9.0051049779    -1	 371	 571	 0	 0
O         5.2314455094    8.0844468325   -8.0551049779    -1	 449	 371	 0	 0
Si       -5.2695544906    1.2374468325   -1.0601049779    -22	 68	 156	 71	 376
O        -6.8295544906    1.0744468325   -1.4211049779    -1	 377	 375	 0	 0
Si       -8.3585544906    1.3514468325   -1.0031049779    -2	 378	 166	 255	 376
O        -9.3115544906    1.1324468325   -2.2801049779    -1	 377	 379	 0	 0
Si       -9.9485544906    1.6944468325   -3.6471049779    -2	 241	 378	 252	 380
O       -11.2875544906    0.8684468325   -3.9891049779    -1	 379	 1630	 0	 0
Si       -5.1925544906    6.9654468325   -8.3911049779    -23	 74	 382	 383	 384
O        -4.9115544906    8.4614468325   -7.8671049779    -1	 381	 590	 0	 0
O        -4.3055544906    6.6784468325   -9.7031049779    -1	 381	 535	 0	 0
O        -6.7525544906    6.8034468325   -8.7511049779    -1	 381	 958	 0	 0
Si       -8.3155544906    5.0054468325   -6.0141049779    -23	 242	 75	 386	 253
O        -8.7135544906    6.0594468325   -7.1671049779    -1	 385	 958	 0	 0
O        -3.3095544906    1.7424468325    8.1758950221    -1	 109	 405	 0	 0
O        -1.7105544906    3.3634468325    9.4928950221    -1	 109	 389	 0	 0
Si       -1.2405544906    2.9274468325   10.9688950221       -2	 388	 390	 391	 368
O        -2.0765544906    3.7584468325   12.0668950221       -1	 1193	 389	 0	 0
O        -1.5055544906    1.3534468325   11.1778950221       -1	 389	 407	 0	 0
O        -4.0845544906    4.1904468325    8.7248950221    -1	 393	 109	 0	 0
Si       -4.9205544906    5.0224468325    9.8228950221    -2	 394	 395	 396	 392
O        -6.4895544906    4.7104468325    9.6448950221    -1	 393	 1384	 0	 0
O        -4.6555544906    6.5964468325    9.6138950221    -1	 393	 741	 0	 0
O        -4.4505544906    4.5854468325   11.2988950221       -1	 393	 1193	 0	 0
Si       -3.3205544906   -5.6765531675   -0.5531049779    -2	 339	 398	 143	 328
O        -3.8065544906   -7.2025531675   -0.7121049779    -1	 397	 399	 0	 0
Si       -3.4415544906   -8.7605531675   -0.8871049779    -2	 400	 150	 327	 398
O        -4.7815544906   -9.5865531675   -1.2301049779    -1	 401	 399	 0	 0
Si       -5.7155544906  -10.3515531675   -2.2941049779    -2	 402	 403	 324	 400
O        -5.5615544906  -11.9415531675   -2.0931049779    -1	 401	 543	 0	 0
O        -7.2495544906   -9.9245531675   -2.0581049779    -1	 401	 464	 0	 0
O        -1.8845544906    0.0084468325    6.8028950221    -1	 405	 110	 0	 0
Si       -2.9445544906    0.1844468325    8.0008950221    -2	 387	 188	 404	 406
O        -2.3075544906   -0.3775531675    9.3678950221    -1	 405	 407	 0	 0
Si       -1.3545544906   -0.1575531675   10.6448950221       -2	 335	 406	 391	 408
O        -1.7865544906   -1.1795531675   11.8118950221       -1	 1483	 407	 0	 0
O       -22.1715544906    3.3704468325   -0.2171049779    -1	 1582	 1847	 0	 0
O       -12.2205544906  -12.9435531675    9.8088950221    -1	 1585	 1376	 0	 0
O        13.7614455094   -6.6705531675   17.3038950221       -1	 1093	 1423	 0	 0
Si      -16.9515544906    3.2044468325  -15.2951049779       -2	 1783	 2122	 1636	 1255
O         8.8054455094  -15.8215531675    5.8478950221    -1	 1861	 1606	 0	 0
O        -6.8335544906    7.2224468325  -13.9051049779       -1	 702	 1456	 0	 0
O        12.1054455094   14.3134468325   -5.4221049779    -1	 1421	 997	 0	 0
O         8.3164455094  -16.1845531675    3.2898950221    -1	 1706	 1606	 0	 0
O        -0.1695544906    2.0774468325  -13.3221049779       -1	 963	 1796	 0	 0
O        -4.4145544906   17.4054468325    1.0208950221    -1	 635	 1924	 0	 0
O         2.5444455094   -6.2885531675   16.6058950221       -1	 1953	 1719	 0	 0
O         0.4804455094   14.6964468325   -3.5141049779    -1	 1647	 840	 0	 0
Si       10.4024455094    9.9024468325    4.8718950221    -2	 979	 1637	 478	 1174
Si        4.6974455094  -15.9035531675   -0.4941049779    -2	 578	 1115	 743	 680
O        -2.9275544906    0.4784468325   19.9468950221       -1	 1817	 1507	 0	 0
O         7.9374455094  -17.5295531675   -1.0851049779    -1	 829	 1408	 0	 0
Si       10.3264455094    4.1734468325   12.2028950221       -2	 1814	 1748	 1182	 775
O       -15.7175544906    6.3834468325  -13.8031049779       -1	 1881	 731	 0	 0
Si      -10.2645544906   11.9194468325   -6.5221049779    -2	 1971	 1836	 1156	 1792
O        -6.4115544906    2.6554468325   17.8948950221       -1	 1084	 1846	 0	 0
O        -0.6695544906   -8.5025531675  -19.1131049779       -1	 1891	 1776	 0	 0
O         4.2994455094  -16.0355531675    3.3648950221    -1	 1481	 1648	 0	 0
Si      -18.9325544906    1.7444468325   -0.8071049779    -2	 1129	 1498	 955	 948
O        -2.3845544906   -6.1065531675   16.6988950221       -1	 1354	 504	 0	 0
O         2.8524455094   -6.1995531675  -12.6141049779       -1	 1750	 942	 0	 0
O        12.0694455094    1.4934468325    4.8548950221    -1	 473	 1250	 0	 0
O        -3.7685544906   -5.9535531675  -12.4911049779       -1	 466	 1567	 0	 0
O       -15.0155544906   13.3174468325   -3.2301049779    -1	 444	 1350	 0	 0
Si      -12.3445544906    3.3154468325  -18.0441049779       -2	 1405	 1324	 1109	 1607
O       -18.7395544906    3.8864468325   -6.3511049779    -1	 1041	 1770	 0	 0
O         4.9584455094   13.7314468325    3.9308950221    -1	 1241	 762	 0	 0
O         0.6714455094    8.5094468325   19.1148950221       -1	 826	 1200	 0	 0
O         5.4464455094   14.4964468325    1.4678950221    -1	 1841	 762	 0	 0
O        -5.1545544906  -19.4275531675   -1.7201049779    -1	 1609	 786	 0	 0
O         1.6714455094    3.7354468325  -12.4371049779       -1	 1796	 1949	 0	 0
Si      -14.8655544906   11.8064468325   -3.7631049779    -2	 436	 550	 903	 1508
O        -6.3365544906   16.1674468325   -5.0171049779    -1	 1234	 1614	 0	 0
Si        2.6724455094  -14.7185531675    6.3288950221    -2	 1425	 1732	 909	 1319
Si      -14.8995544906    9.7314468325   -1.4441049779    -2	 903	 1896	 1759	 1736
Si        3.7434455094    8.8994468325   16.7738950221       -2	 1359	 1468	 1263	 890
Si        5.4954455094    9.6584468325   -8.2641049779    -2	 537	 1968	 374	 928
O        -8.3915544906   10.4634468325    4.0428950221    -1	 615	 1880	 0	 0
Si       18.8074455094   -4.8215531675    0.4848950221    -2	 1243	 1612	 1038	 1199
O        15.2224455094  -15.3205531675    4.9168950221    -1	 1726	 455	 0	 0
O       -15.6005544906    5.0204468325  -18.1871049779       -1	 1963	 1444	 0	 0
Si       -9.6045544906   -0.8185531675   19.9018950221       -2	 1595	 771	 941	 910
Si       16.3364455094  -15.2255531675    6.0748950221    -2	 530	 2011	 452	 671
O        -4.7945544906    7.0984468325  -12.2511049779       -1	 535	 1456	 0	 0
O        -0.2505544906    2.4964468325  -18.4761049779       -1	 818	 839	 0	 0
O       -15.7535544906   -6.4375531675   -3.5251049779    -1	 1282	 607	 0	 0
Si       10.4184455094   -0.4545531675   -8.1371049779    -2	 225	 1037	 1664	 1233
Si        5.2664455094   -7.5275531675   13.7288950221       -2	 1833	 1267	 1529	 720
Si      -17.0605544906  -10.8985531675    7.0318950221    -2	 2090	 1876	 1989	 1549
O       -24.0535544906   -1.9695531675    4.1118950221    -1	 770	 1342	 0	 0
O        15.8934455094   -3.0215531675   16.4948950221       -1	 1509	 592	 0	 0
Si       -8.8175544906  -10.2365531675   -2.2361049779    -2	 1602	 1202	 403	 1343
O        -1.5485544906   24.1864468325    1.1708950221    -1	 523	 1512	 0	 0
Si       -4.2545544906   -7.4795531675  -12.6501049779       -2	 435	 509	 1150	 632
Si        3.2904455094   -2.6905531675   15.5508950221       -2	 746	 869	 1479	 1872
O        15.8204455094  -11.5795531675    5.0428950221    -1	 604	 916	 0	 0
O        -2.0785544906  -13.3205531675    9.6198950221    -1	 1578	 1534	 0	 0
O       -22.4535544906   -0.3485531675    5.4288950221    -1	 770	 875	 0	 0
O       -10.7795544906   15.5654468325   -7.5541049779    -1	 1562	 653	 0	 0
O        15.0934455094   -7.5815531675   -4.0981049779    -1	 1265	 1697	 0	 0
Si       12.2244455094   -0.0955531675    5.0558950221    -2	 434	 1979	 357	 726
Si      -14.8225544906   15.4604468325   -8.7741049779    -2	 603	 1196	 2038	 879
O        17.9484455094    0.1414468325   -7.9101049779    -1	 1635	 560	 0	 0
O        18.1244455094    4.2794468325   -5.2111049779    -1	 1643	 988	 0	 0
O       -23.0515544906   -4.0895531675    5.3048950221    -1	 1342	 1840	 0	 0
O        11.6624455094    8.9804468325    4.4818950221    -1	 421	 695	 0	 0
O         1.5504455094  -24.1785531675   -1.1701049779    -1	 1773	 542	 0	 0
Si       -8.6645544906    1.2204468325  -16.8981049779       -2	 1993	 1379	 524	 822
O        -4.8025544906   -2.2665531675  -18.5911049779       -1	 1217	 1030	 0	 0
O         9.6554455094    9.4124468325    1.1408950221    -1	 689	 1318	 0	 0
O        10.3534455094    1.2354468325    7.9218950221    -1	 707	 981	 0	 0
O       -10.2755544906    4.5004468325  -15.2511049779       -1	 683	 1272	 0	 0
O        15.7194455094   -6.3755531675   13.8048950221       -1	 1034	 996	 0	 0
O         1.0624455094  -23.7585531675   -3.7171049779    -1	 582	 542	 0	 0
O         9.5314455094   10.3084468325   -7.2571049779    -1	 797	 742	 0	 0
O         2.5124455094   10.1674468325   19.9998950221       -1	 1211	 1200	 0	 0
O       -13.9905544906   -2.7245531675  -10.8911049779       -1	 1078	 591	 0	 0
O        -5.4965544906    0.1634468325  -22.8231049779       -1	 1172	 1045	 0	 0
Si      -18.8825544906   -0.8995531675    6.8478950221    -2	 1089	 1412	 599	 716
O        11.2424455094    5.7644468325  -11.7371049779       -1	 1738	 1590	 0	 0
Si        0.7834455094  -14.5085531675  -12.2001049779       -2	 1936	 548	 871	 696
O        -4.5025544906   18.0534468325   -5.0471049779    -1	 1614	 1190	 0	 0
O        22.8674455094   -5.7935531675    4.4508950221    -1	 1122	 1516	 0	 0
O        -9.5385544906  -18.8835531675    0.9278950221    -1	 1091	 1326	 0	 0
Si       15.3634455094   -2.8545531675   12.6528950221       -2	 1141	 516	 1269	 1232
O         2.7384455094  -16.4085531675   -9.7311049779    -1	 793	 554	 0	 0
O         1.2154455094  -12.3005531675  -18.3791049779       -1	 1565	 576	 0	 0
O        11.3554455094   -0.8845531675    9.1138950221    -1	 1485	 981	 0	 0
Si      -22.1055544906    2.4284468325   -6.0841049779    -2	 876	 1693	 974	 2048
O         9.0354455094    1.3644468325  -16.1451049779       -1	 1171	 1104	 0	 0
O         9.1274455094  -11.0145531675   12.0348950221       -1	 715	 1334	 0	 0
Si       -1.4315544906   -5.8865531675   17.9758950221       -2	 1820	 2137	 1000	 432
O         0.8244455094   19.9674468325    4.4538950221    -1	 693	 541	 0	 0
Si       12.2744455094   -2.7395531675   12.7108950221       -2	 1232	 1036	 1111	 800
O        -8.1405544906   19.5464468325   -0.5981049779    -1	 581	 630	 0	 0
Si      -22.1825544906   -3.3005531675    1.2458950221    -2	 1098	 618	 2051	 1022
O        -5.3685544906   -7.5755531675  -13.8081049779       -1	 466	 1886	 0	 0
O        20.4204455094   -5.6675531675    5.4028950221    -1	 1516	 1183	 0	 0
Si      -17.3765544906   -0.6735531675    4.1568950221    -2	 1132	 572	 1918	 716
Si       -8.9315544906  -13.3215531675   -2.5601049779    -2	 1602	 1237	 1942	 1440
O         2.6614455094  -22.1375531675   -2.4001049779    -1	 1669	 542	 0	 0
O         6.4104455094   -4.2835531675  -14.7961049779       -1	 1047	 944	 0	 0
O        -6.2585544906   14.1124468325    3.2338950221    -1	 1633	 1457	 0	 0
O        16.3174455094   -2.6345531675   13.9308950221       -1	 497	 1509	 0	 0
O       -11.4945544906   13.1864468325   -3.2961049779    -1	 1865	 1959	 0	 0
O        15.2984455094   -9.5915531675   -2.4131049779    -1	 1265	 1831	 0	 0
O         0.9774455094   23.6414468325    5.3738950221    -1	 987	 1131	 0	 0
O        15.9704455094    2.7074468325    9.1648950221    -1	 1762	 740	 0	 0
Si      -14.8275544906    9.1624468325    3.8918950221    -2	 1658	 747	 2181	 1639
Si       14.9814455094    2.3024468325  -18.5511049779       -2	 2067	 610	 1179	 1044
Si       -2.1745544906   23.6704468325    2.5618950221    -2	 2033	 896	 838	 465
O        -7.0965544906    1.5324468325  -16.7201049779       -1	 995	 480	 0	 0
Si      -11.9245544906    6.5324468325   -1.8251049779    -2	 249	 1914	 1461	 254
O        18.7294455094    2.4964468325   -7.0461049779    -1	 988	 560	 0	 0
O         2.9564455094   23.6164468325    3.6448950221    -1	 1058	 1131	 0	 0
O         2.2774455094    1.9524468325  -14.2741049779       -1	 1796	 1144	 0	 0
O         7.4804455094   19.3344468325   -4.3511049779    -1	 1705	 652	 0	 0
O        15.7114455094  -15.7405531675    7.4638950221    -1	 1449	 455	 0	 0
O        -4.3745544906    9.1284468325    8.9798950221    -1	 741	 703	 0	 0
O       -15.9685544906   -2.7005531675   -9.1621049779    -1	 601	 591	 0	 0
O        -0.8195544906  -18.3245531675   -7.5491049779    -1	 1715	 1563	 0	 0
Si      -17.1815544906  -13.9815531675    6.6968950221    -2	 2087	 1827	 1549	 1207
Si       -3.6805544906    7.1934468325  -11.0931049779       -2	 1599	 763	 383	 456
O        16.4374455094   10.3904468325   -5.6401049779    -1	 1270	 952	 0	 0
O         4.6594455094   10.4904468325   -7.1661049779    -1	 449	 1804	 0	 0
Si       12.4614455094   10.7924468325   -4.2701049779    -2	 723	 1587	 1763	 1774
O       -12.0275544906   -9.7635531675    3.1058950221    -1	 1487	 904	 0	 0
O        22.3384455094    1.7184468325   -1.0431049779    -1	 1254	 1672	 0	 0
Si       -0.7045544906   20.2444468325    4.8708950221    -2	 505	 1628	 556	 705
Si        2.1754455094  -23.6635531675   -2.5591049779    -2	 513	 1999	 486	 479
Si       -5.8425544906  -13.4365531675   -2.6181049779    -2	 1050	 402	 847	 1440
O        17.3184455094   -4.7545531675   15.1218950221       -1	 1034	 1509	 0	 0
O       -13.9125544906   -4.7795531675   -2.6411049779    -1	 1553	 607	 0	 0
Si      -10.4775544906  -15.6235531675    2.4608950221    -2	 626	 1163	 1644	 1205
Si      -10.4005544906   -9.8955531675   -4.8701049779    -2	 1764	 679	 1343	 1640
O         1.7364455094  -14.2885531675  -10.9221049779       -1	 554	 493	 0	 0
O       -17.3935544906   -0.9665531675   -7.7891049779    -1	 601	 850	 0	 0
O       -13.3355544906   11.5294468325   -4.1811049779    -1	 1865	 444	 0	 0
O         5.6514455094   11.3004468325    8.1638950221    -1	 1082	 1055	 0	 0
Si       -2.1575544906   -9.2335531675  -14.1381049779       -2	 1150	 677	 765	 1743
O         0.9454455094  -22.3955531675    0.6668950221    -1	 1268	 1773	 0	 0
Si        2.3734455094  -14.8505531675   -9.5561049779    -2	 649	 498	 548	 1311
O        13.3374455094  -11.5225531675    4.1828950221    -1	 916	 1294	 0	 0
O        -0.8555544906   21.7554468325    5.4038950221    -1	 987	 541	 0	 0
Si       22.0994455094    3.8774468325   -6.5791049779    -2	 1467	 1837	 2022	 1712
O         4.9254455094   15.2984468325   -0.9761049779    -1	 1841	 1301	 0	 0
O       -15.7935544906    0.6544468325   -6.4721049779    -1	 850	 650	 0	 0
Si       18.8844455094    0.9074468325   -6.8451049779    -2	 475	 1860	 526	 923
Si        2.1594455094    9.2414468325   14.1398950221       -2	 567	 1289	 1263	 1904
O       -15.5125544906    4.3724468325  -12.1181049779       -1	 1881	 1160	 0	 0
O         5.3484455094   15.6854468325   -3.5421049779    -1	 1755	 1301	 0	 0
Si       -4.9965544906   -0.7065531675   17.1538950221       -2	 713	 806	 1926	 1710
Si       -7.7425544906   19.6794468325   -4.4571049779    -2	 977	 2035	 983	 1480
Si       11.8544455094   -5.9555531675   -3.5081049779    -2	 1409	 1623	 951	 183
O         2.9954455094    8.4094468325   13.0418950221       -1	 561	 1399	 0	 0
Si      -10.2965544906    3.5454468325    8.4738950221    -2	 1108	 1661	 1118	 1951
Si        8.0234455094   -5.1305531675   -9.8781049779    -2	 1593	 276	 1925	 1320
O         4.4524455094   -3.3925531675  -16.3091049779       -1	 1389	 944	 0	 0
Si        8.4704455094    6.4584468325   -8.6451049779    -2	 1313	 370	 373	 1768
O       -18.0125544906   -0.1115531675    2.7908950221    -1	 1569	 511	 0	 0
O        -4.4505544906    3.3994468325   16.3108950221       -1	 1084	 1568	 0	 0
O        -7.3305544906   -1.7215531675  -22.7931049779       -1	 1172	 684	 0	 0
Si       17.1064455094    8.2604468325    0.6358950221    -2	 1445	 1806	 2023	 1176
Si        0.7454455094  -11.8645531675  -19.8551049779       -2	 1035	 499	 1316	 2077
O       -11.5315544906   -0.8185531675   11.9928950221       -1	 1618	 620	 0	 0
O         4.4164455094  -17.3985531675   -1.0191049779    -1	 1116	 422	 0	 0
O        15.3354455094    3.2284468325  -12.6911049779       -1	 853	 1375	 0	 0
O        15.0174455094  -13.3105531675    3.2328950221    -1	 916	 1726	 0	 0
Si       -7.6705544906   19.1104468325    0.8778950221    -2	 507	 2107	 1076	 1791
Si        0.5924455094  -23.3215531675   -5.1931049779    -2	 1490	 2004	 486	 1079
O        15.7874455094  -10.0125531675    0.1338950221    -1	 735	 1831	 0	 0
Si      -10.7165544906    0.3294468325   -7.7451049779    -2	 1505	 666	 243	 1566
O        11.0134455094  -11.4215531675   10.2558950221       -1	 715	 968	 0	 0
O        16.3604455094    4.6614468325    1.6908950221    -1	 1273	 1913	 0	 0
O        -8.7815544906    8.5094468325   11.5148950221       -1	 1890	 1476	 0	 0
Si       -4.9255544906   -1.2755531675   22.4888950221       -2	 1369	 1898	 2140	 1981
O        -0.9435544906   22.4024468325   -0.6651049779    -1	 1382	 1512	 0	 0
Si       -5.0665544906   10.0504468325   -8.0681049779    -2	 1521	 1546	 382	 1201
Si      -15.5225544906   -2.2975531675  -10.6551049779       -2	 489	 2131	 532	 1583
Si       15.4474455094   -3.4235531675   17.9878950221       -2	 1306	 2167	 463	 1600
Si        3.9124455094    9.9994468325  -10.8971049779       -2	 1596	 1829	 655	 1968
O        -5.0245544906  -10.0875531675    9.7418950221    -1	 1365	 1654	 0	 0
O        -1.2135544906   12.3084468325   18.3808950221       -1	 1958	 920	 0	 0
O        -9.2475544906  -16.8915531675   -0.7661049779    -1	 1340	 1326	 0	 0
O       -11.2795544906    9.4504468325    2.3408950221    -1	 859	 1086	 0	 0
O         4.6954455094   -1.8875531675   21.0158950221       -1	 748	 688	 0	 0
O       -20.4165544906   -0.4725531675    7.0838950221    -1	 491	 875	 0	 0
O        15.8644455094   -4.2835531675   -7.1971049779    -1	 1588	 1941	 0	 0
Si      -17.0285544906   -2.5245531675   -7.9641049779    -2	 2121	 532	 549	 1333
O         1.6604455094  -20.0175531675   -3.5911049779    -1	 1363	 1669	 0	 0
O       -15.7085544906   15.7484468325   -7.4631049779    -1	 1945	 474	 0	 0
Si       16.4564455094  -12.1415531675    6.4088950221    -2	 1161	 468	 2013	 671
O        22.9774455094   -1.6325531675    2.0298950221    -1	 1422	 752	 0	 0
Si       10.2494455094   -1.5545531675   19.5338950221       -2	 1729	 1810	 1300	 1986
Si      -15.4725544906   -4.9415531675   -3.0011049779    -2	 545	 458	 1787	 1701
O         1.1384455094  -18.0295531675  -11.0481049779       -1	 793	 1110	 0	 0
Si       11.8884455094   -3.8815531675   -5.8281049779    -2	 1409	 940	 1454	 1168
O        15.2464455094    3.8754468325  -18.7601049779       -1	 522	 1119	 0	 0
O        13.1834455094  -15.1965531675    3.2628950221    -1	 1726	 872	 0	 0
O         9.9634455094   19.2774468325   -3.4901049779    -1	 1705	 1778	 0	 0
O        -2.1535544906   -1.9705531675   19.3978950221       -1	 1507	 1139	 0	 0
Si        4.1794455094    1.7584468325   19.9828950221       -2	 1917	 2187	 1685	 1520
Si       -7.9455544906   10.8664468325    2.5498950221    -2	 931	 450	 283	 973
O         7.5604455094   18.9154468325    0.8028950221    -1	 1002	 894	 0	 0
O       -15.8945544906    5.8584468325    2.2908950221    -1	 1746	 1686	 0	 0
O       -22.6275544906   -3.7035531675    2.7388950221    -1	 508	 1342	 0	 0
[...]
 1898      O      -4.6435544906     0.2194468325    23.0138950221
 1899      O     -16.1605544906     1.0494468325    -3.8981049779
 1900      O     -12.1045544906   -14.3065531675     5.4248950221
 1901      O      -9.2105544906    -2.8855531675   -16.0551049779
 1902      O      -9.0335544906    -1.3565531675    16.1468950221
 1903      O       5.1194455094    -1.5005531675    18.4508950221
 1904      O       0.5904455094     8.9294468325    13.9618950221
 1905      Si     -2.3105544906   -20.6915531675     0.5238950221
 1906      Si      8.1694455094   -10.1585531675     8.0118950221
 1907      Si     -3.7895544906    -6.9085531675    11.2338950221
 1908      O      22.3784455094    -5.3725531675     1.9038950221
 1909      Si    -16.5635544906    -1.9535531675    15.9198950221
 1910      Si      7.9014455094    -1.9165531675   -22.8681049779
 1911      O       9.2884455094     8.6214468325     8.7268950221
 1912      O       6.8294455094     6.7154468325   -14.1591049779
 1913      Si     15.4744455094     4.9494468325     3.0028950221
 1914      O     -13.4935544906     6.2194468325    -2.0031049779
 1915      O      -9.8935544906     6.4684468325    12.7468950221
 1916      Si     -4.0145544906   -23.4335531675    -2.4441049779
 1917      O       3.6934455094     0.2324468325    19.8238950221
 1918      O     -17.0115544906    -2.2305531675     3.9818950221
 1919      O     -22.9745544906     1.6394468325    -2.0261049779
 1920      O      10.4684455094     8.2124468325   -11.1871049779
 1921      Si     11.9644455094     1.8474468325   -13.1581049779
 1922      Si     -4.2865544906   -15.8535531675     2.3458950221
 1923      O      12.0814455094    -4.8825531675    18.2548950221
 1924      Si     -4.5695544906    18.9954468325     0.8198950221
 1925      O       8.4694455094    -4.7275531675   -11.3711049779
 1926      O      -4.7325544906     0.8674468325    16.9448950221
 1927      O      -7.3265544906    -7.8695531675   -10.3091049779
 1928      O     -22.3775544906     5.3804468325    -1.9011049779
 1929      O       4.1334455094   -10.8085531675     7.0058950221
 1930      Si      4.8004455094    -1.8015531675   -22.8111049779
 1931      O      -9.2335544906    -6.1885531675    15.0798950221
 1932      O       0.7444455094    12.6034468325    14.8818950221
 1933      O      -7.3295544906    -9.5055531675    -7.2111049779
 1934      O      -3.3015544906   -18.2675531675    -8.4081049779
 1935      O      -2.7365544906    16.4154468325     9.7328950221
 1936      O       1.2144455094   -13.4865531675   -13.3671049779
 1937      O      -4.3805544906   -21.8755531675    -2.2691049779
 1938      O      24.0554455094     1.9764468325    -4.1101049779
 1939      O      -9.2865544906    -8.6145531675    -8.7241049779
 1940      O       2.5004455094    16.5434468325     6.6008950221
 1941      Si     14.9774455094    -3.9955531675    -5.8851049779
 1942      O      -9.8845544906   -13.5415531675    -3.8371049779
 1943      Si      9.2564455094   -19.4445531675     1.7578950221
 1944      O       9.3654455094    15.5364468325    -3.6161049779
 1945      Si    -16.3345544906    15.2324468325    -6.0731049779
 1946      O      -1.6245544906    18.4574468325     8.5018950221
 1947      Si    -15.3955544906     0.7864468325   -10.3321049779
 1948      O      -1.9235544906    15.2164468325    -2.5951049779
 1949      Si      1.5174455094     5.3244468325   -12.6381049779
 1950      O     -15.3735544906     3.8704468325     9.7458950221
 1951      O     -10.9325544906     4.1074468325     7.1078950221
 1952      Si     19.0054455094    -2.3055531675     6.1438950221
 1953      Si      3.1694455094    -5.7735531675    15.2168950221
 1954      Si    -15.4385544906    -2.8675531675    -5.3201049779
 1955      O      -8.8575544906     2.7814468325    18.8458950221
 1956      Si    -11.8525544906     5.9634468325     3.5098950221
 1957      O       9.4664455094    10.3324468325   -12.3781049779
 1958      Si     -0.7435544906    11.8714468325    19.8568950221
 1959      Si    -11.6495544906    14.7764468325    -3.4971049779
 1960      O      -0.9005544906   -17.9055531675   -12.7021049779
 1961      O       1.5834455094     4.3824468325   -18.5061049779
 1962      O       5.1564455094    19.4344468325     1.7218950221
 1963      Si    -15.3195544906     6.5154468325   -17.6621049779
 1964      Si     -0.8655544906    15.0844468325     6.8668950221
 1965      O     -15.2565544906     2.5074468325     5.3628950221
 1966      O      -8.8145544906    10.0774468325     6.6078950221
 1967      Si    -15.4775544906   -11.2395531675     9.6648950221
 1968      O       5.0254455094    10.0954468325    -9.7401049779
 1969      O      -8.6375544906    10.6024468325    -9.4861049779
 1970      Si    -10.4935544906    -5.2665531675    15.4698950221
 1971      O     -10.8895544906    11.4044468325    -5.1331049779
 1972      Si     21.9094455094    -4.9365531675     0.4278950221
 1973      O      -1.8765544906     8.5914468325    13.1338950221
 1974      O      -2.4495544906    -6.0825531675    11.5768950221
 1975      Si      7.9474455094   -10.8585531675    -2.5481049779
 1976      O      -9.2105544906    -4.0715531675   -11.0431049779
 1977      O       4.8594455094    15.3224468325    -6.0991049779
 1978      Si      3.5624455094   -10.2695531675    10.7608950221
 1979      O      11.7784455094    -0.4985531675     6.5488950221
 1980      O      -1.0205544906    16.6744468325     6.6658950221
 1981      O      -6.4855544906    -1.4375531675    22.1288950221
 1982      O       3.9644455094    -4.1585531675   -13.8451049779
 1983      O       2.9294455094    -0.4705531675   -19.9451049779
 1984      Si     12.5034455094    14.4464468325    -9.2821049779
 1985      O     -12.1565544906    -0.8385531675   -10.9221049779
 1986      O       9.1364455094    -1.6495531675    18.3758950221
 1987      O       8.9694455094     1.3874468325   -21.2661049779
 1988      O      13.8334455094     5.2064468325    -2.5111049779
 1989      O     -15.9465544906   -10.8025531675     8.1888950221
 1990      O      -8.2165544906    13.8184468325     6.7328950221
 1991      Si     -5.4225544906   -10.2205531675    13.6008950221
 1992      Si     -9.3745544906    16.3684468325    -2.0901049779
 1993      O      -9.5005544906     2.0524468325   -15.8001049779
 1994      O      -5.4445544906   -13.3035531675    -6.4771049779
 1995      O      -8.8115544906     7.2474468325   -12.1761049779
 1996      Si     -0.7385544906    18.1694468325     7.1908950221
 1997      Si     15.4024455094     5.5184468325    -2.3321049779
 1998      O      -9.1585544906   -17.5395531675     5.3028950221
 1999      H       3.1884455094   -24.4045531675    -2.8731049779
 2000      H       0.9834455094   -24.7365531675     1.0678950221
 2001      H      -2.7715544906   -24.5975531675     1.1368950221
 2002      H      -5.0905544906   -24.0975531675    -2.7191049779
 2003      H      -3.2605544906   -23.8215531675    -5.9911049779
 2004      H       1.2634455094   -23.9895531675    -6.0741049779
 2005      H       4.3084455094   -20.3785531675     5.4548950221
 2006      H       8.0634455094   -20.5175531675     5.3848950221
 2007      H       8.3434455094   -19.7705531675    -1.7571049779
 2008      H      10.2684455094   -20.1855531675     1.4438950221
 2009      H      11.3884455094   -16.1595531675     9.7718950221
 2010      H      15.1434455094   -16.2985531675     9.7018950221
 2011      H      17.3484455094   -15.9665531675     5.7618950221
 2012      H      15.4234455094   -15.5515531675     2.5598950221
 2013      H      17.5324455094   -11.4785531675     6.6838950221
 2014      H      17.4254455094   -10.2375531675    -1.5691049779
 2015      H      15.6404455094    -7.3535531675    18.5898950221
 2016      H      17.8454455094    -7.0215531675    14.6498950221
 2017      H      22.3004455094    -6.3515531675     6.6878950221
 2018      H      24.5054455094    -6.0195531675     2.7478950221
 2019      H      24.6894455094    -1.5305531675     3.6708950221
 2020      H      24.5814455094    -0.2905531675    -4.5831049779
 2021      H      24.7654455094     4.1984468325    -3.6601049779
 2022      H      22.4464455094     4.6984468325    -7.5171049779
 2023      H      18.1824455094     8.9244468325     0.9108950221
 2024      H      18.0754455094    10.1644468325    -7.3431049779
 2025      H      18.2584455094    14.6524468325    -6.4201049779
 2026      H      15.9394455094    15.1524468325   -10.2771049779
 2027      H      11.6754455094    19.3784468325    -1.8491049779
 2028      H       9.3564455094    19.8784468325    -5.7061049779
 2029      H       5.0924455094    24.1044468325     2.7218950221
 2030      H       2.7734455094    24.6044468325    -1.1351049779
 2031      H       5.6014455094    20.0174468325    -5.6361049779
 2032      H      -0.9815544906    24.7434468325    -1.0661049779
 2033      H      -3.1865544906    24.4114468325     2.8748950221
 2034      H      -4.3065544906    20.3854468325    -5.4521049779
 2035      H      -8.0615544906    20.5244468325    -5.3831049779
 2036      H     -10.2665544906    20.1924468325    -1.4421049779
 2037      H     -11.3865544906    16.1664468325    -9.7701049779
 2038      H     -15.1425544906    16.3054468325    -9.7001049779
 2039      H     -17.3475544906    15.9734468325    -5.7591049779
 2040      H     -17.5305544906    11.4854468325    -6.6821049779
 2041      H     -17.4235544906    10.2454468325     1.5708950221
 2042      H     -15.6385544906     7.3614468325   -18.5881049779
 2043      H     -17.8435544906     7.0294468325   -14.6471049779
 2044      H     -18.5425544906     6.2194468325    -6.7561049779
 2045      H     -22.2985544906     6.3584468325    -6.6861049779
 2046      H     -24.5035544906     6.0264468325    -2.7461049779
 2047      H     -24.6875544906     1.5374468325    -3.6681049779
 2048      H     -22.8565544906     1.8134468325    -6.9401049779
 2049      H     -24.5805544906     0.2974468325     4.5848950221
 2050      H     -24.7635544906    -4.1905531675     3.6618950221
 2051      H     -22.9335544906    -3.9155531675     0.3908950221
 2052      H     -22.4455544906    -4.6905531675     7.5188950221
 2053      H     -15.7005544906    11.7614468325    -9.9531049779
 2054      H     -10.3435544906    14.4644468325     5.8888950221
 2055      H      -3.2635544906    18.6834468325    10.2058950221
 2056      H      -1.4785544906    15.7994468325    -9.9531049779
 2057      H       2.2764455094    15.6594468325   -10.0231049779
 2058      H      12.1844455094    15.2924468325   -10.2071049779
 2059      H      16.1504455094    10.5794468325   -10.5441049779
 2060      H      17.7614455094     5.7074468325   -15.3081049779
 2061      H      15.4434455094     6.2074468325   -19.1651049779
 2062      H      22.6564455094     0.1244468325    -7.7841049779
 2063      H      22.5804455094    -5.6045531675    -0.4541049779
 2064      H      17.5014455094    -4.5095531675    -8.9001049779
 2065      H      15.5764455094    -4.0945531675   -12.1021049779
 2066      H      17.5784455094     1.2194468325   -16.2311049779
 2067      H      15.6534455094     1.6344468325   -19.4321049779
 2068      H      11.6874455094     6.3474468325   -19.0951049779
 2069      H       8.8594455094    10.9334468325   -14.5941049779
 2070      H      11.5994455094    13.6494468325     5.4808950221
 2071      H       5.1044455094    11.0734468325   -14.5241049779
 2072      H       8.3624455094     1.9894468325   -23.4821049779
 2073      H      10.4984455094    -2.9995531675   -20.5481049779
 2074      H       8.5734455094    -2.5845531675   -23.7501049779
 2075      H      10.4214455094    -8.7285531675   -13.2171049779
 2076      H       8.4964455094    -8.3135531675   -16.4191049779
 2077      H       1.4164455094   -12.5325531675   -20.7361049779
 2078      H       3.3414455094   -12.9475531675   -17.5341049779
 2079      H       1.3404455094   -18.2605531675   -13.4051049779
 2080      H       3.2654455094   -18.6755531675   -10.2041049779
 2081      H       8.4204455094   -14.0415531675    -9.0881049779
 2082      H      10.3454455094   -14.4565531675    -5.8861049779
 2083      H      -5.5995544906   -20.0105531675     5.6388950221
 2084      H      -9.3555544906   -19.8715531675     5.7078950221
 2085      H     -11.6735544906   -19.3715531675     1.8508950221
 2086      H     -15.9385544906   -15.1455531675    10.2788950221
 2087      H     -18.2575544906   -14.6455531675     6.4218950221
 2088      H     -12.1825544906   -15.2845531675    10.2088950221
 2089      H     -16.4265544906   -14.3695531675     3.1508950221
 2090      H     -18.0735544906   -10.1565531675     7.3448950221
 2091      H     -16.1485544906   -10.5715531675    10.5468950221
 2092      H     -11.6855544906    -6.3395531675    19.0968950221
 2093      H     -17.7605544906    -5.7005531675    15.3098950221
 2094      H     -15.4415544906    -6.2005531675    19.1668950221
 2095      H     -17.5765544906    -1.2125531675    16.2328950221
 2096      H     -15.6515544906    -1.6275531675    19.4348950221
 2097      H     -10.4965544906     3.0064468325    20.5498950221
 2098      H      -8.5715544906     2.5914468325    23.7518950221
 2099      H     -17.4995544906     4.5164468325     8.9018950221
 2100      H     -15.5755544906     4.1014468325    12.1038950221
 2101      H     -10.4195544906     8.7354468325    13.2188950221
 2102      H      -8.4955544906     8.3204468325    16.4208950221
 2103      H      -3.3395544906    12.9544468325    17.5368950221
 2104      H      -1.4145544906    12.5394468325    20.7378950221
 2105      H      -8.4185544906    14.0494468325     9.0898950221
 2106      H      -1.3385544906    18.2684468325    13.4068950221
 2107      H      -8.3425544906    19.7774468325     1.7588950221
 2108      H      -1.2625544906    23.9964468325     6.0768950221
 2109      H      -4.8035544906    11.4404468325   -14.3401049779
 2110      H       1.7794455094     6.7144468325   -18.9111049779
 2111      H       4.6074455094     2.1284468325   -23.4121049779
 2112      H     -11.8835544906     7.2214468325   -18.6571049779
 2113      H      -5.3005544906     2.4954468325   -23.2281049779
 2114      H      -9.0555544906     2.6354468325   -23.1591049779
 2115      H      -9.6135544906    -1.9095531675   -23.4121049779
 2116      H     -11.4445544906    -2.1855531675   -20.1411049779
 2117      H      -3.1075544906   -12.3645531675   -20.6521049779
 2118      H      -4.9375544906   -12.6395531675   -17.3811049779
 2119      H     -11.5205544906    -7.9135531675   -12.8101049779
 2120      H      -9.6905544906    -7.6385531675   -16.0811049779
 2121      H     -18.1045544906    -3.1885531675    -8.2391049779
 2122      H     -18.0275544906     2.5404468325   -15.5701049779
 2123      H      -2.5485544906    -7.8195531675   -20.3991049779
 2124      H     -16.1975544906     2.8164468325   -18.8411049779
 2125      H      -3.1835544906   -18.0925531675   -13.3211049779
 2126      H      -5.0145544906   -18.3685531675   -10.0501049779
 2127      H     -11.5975544906   -13.6425531675    -5.4791049779
 2128      H      -9.7665544906   -13.3675531675    -8.7501049779
 2129      H     -18.1805544906    -8.9165531675    -0.9091049779
 2130      H     -16.3495544906    -8.6415531675    -4.1801049779
 2131      H     -16.2735544906    -2.9125531675   -11.5111049779
 2132      H      -9.8435544906   -19.0955531675    -1.4201049779
 2133      H      -2.2745544906   -15.6525531675    10.0248950221
 2134      H       1.4804455094   -15.7915531675     9.9558950221
 2135      H      -8.8585544906   -10.9265531675    14.5958950221
 2136      H      -5.1025544906   -11.0655531675    14.5268950221
 2137      H      -1.7785544906    -6.7075531675    18.9128950221
 2138      H       1.9774455094    -6.8465531675    18.8438950221
 2139      H      -8.3615544906    -1.9815531675    23.4838950221
 2140      H      -4.6055544906    -2.1215531675    23.4148950221
 2141      H       5.3024455094    -2.4885531675    23.2308950221
 2142      H       9.0574455094    -2.6275531675    23.1608950221
 2143      H       9.6154455094     1.9164468325    23.4138950221
 2144      H      11.4464455094     2.1924468325    20.1428950221
 2145      H      -1.2045544906     7.9654468325    20.4708950221
 2146      H       2.5504455094     7.8264468325    20.4008950221
 2147      H       3.1094455094    12.3714468325    20.6538950221
 2148      H       4.9394455094    12.6474468325    17.3828950221
 2149      H       3.1854455094    18.1004468325    13.3238950221
 2150      H       5.0154455094    18.3754468325    10.0518950221
 2151      H       3.2614455094    23.8284468325     5.9928950221
 2152      H      -1.9755544906     6.8544468325   -18.8421049779
 2153      H       1.2064455094    -7.9585531675   -20.4681049779
 2154      H       2.2184455094    -2.6925531675   -20.3951049779
 2155      H       4.0494455094    -2.4165531675   -23.6661049779
 2156      H      -5.0895544906    -2.0775531675   -23.4961049779
 2157      H      15.9314455094     5.4324468325   -12.0371049779
 2158      H      16.4284455094    14.3774468325    -3.1491049779
 2159      H       9.8454455094    19.1034468325     1.4218950221
 2160      H       9.7684455094    13.3744468325     8.7528950221
 2161      H      11.5224455094     7.9214468325    12.8118950221
 2162      H       9.6924455094     7.6454468325    16.0838950221
 2163      H       5.0914455094     2.0844468325    23.4978950221
 2164      H      -4.0475544906     2.4234468325    23.6678950221
 2165      H      -2.2175544906     2.6994468325    20.3968950221
 2166      H      11.8854455094    -7.2145531675    18.6598950221
 2167      H      16.1984455094    -2.8085531675    18.8438950221
 2168      H      18.0294455094    -2.5335531675    15.5718950221
 2169      H      16.2754455094     2.9194468325    11.5128950221
 2170      H      18.5444455094    -6.2115531675     6.7578950221
 2171      H      18.1054455094     3.1954468325     8.2418950221
 2172      H      22.8584455094    -1.8065531675     6.9418950221
 2173      H      22.9344455094     3.9224468325    -0.3891049779
 2174      H      15.9204455094    -6.6065531675    11.4478950221
 2175      H      15.7014455094   -11.7535531675     9.9558950221
 2176      H       8.5604455094   -11.5725531675    14.2728950221
 2177      H       4.8054455094   -11.4335531675    14.3428950221
 2178      H      15.5004455094    -9.8225531675    -4.7711049779
 2179      H     -22.6555544906    -0.1175531675     7.7868950221
 2180      H     -22.5785544906     5.6114468325     0.4558950221
 2181      H     -15.4985544906     9.8304468325     4.7728950221
 2182      H     -15.4225544906    15.5584468325    -2.5581049779
 2183      H     -15.9195544906     6.6144468325   -11.4461049779
 2184      H      -3.1655544906    -2.4925531675   -20.2941049779
 2185      H     -18.6895544906    -4.8305531675     7.4488950221
 2186      H     -15.9295544906    -5.4255531675    12.0388950221
 2187      H       3.1664455094     2.4994468325    20.2968950221
 2188      H      16.3514455094     8.6484468325     4.1818950221
 2189      H      18.6914455094     4.8374468325    -7.4471049779
 2190      H      -8.5585544906    11.5804468325   -14.2711049779
 ----------------------------------------------------------------
 Nuclear Repulsion Energy =     5889896.53971770 hartrees
 There are      296 alpha and      296 beta electrons
 Total job time:  58743.60s(wall), 2103697.53s(cpu) 
 Sat Jun 26 02:49:56 2021

        *************************************************************
        *                                                           *
        *  Thank you very much for using Q-Chem.  Have a nice day.  *
        *                                                           *
        *************************************************************


