
Running Job 1 of 1 ETH1-CHA-freq.in
qchem ETH1-CHA-freq.in_55320.0 /scr/lance/134426/qchem55320/ 0
/home/mgcf/software-ws/qchem/qchem_540/exe/qcprog.exe_s ETH1-CHA-freq.in_55320.0 /scr/lance/134426/qchem55320/
                  Welcome to Q-Chem
     A Quantum Leap Into The Future Of Chemistry


 Q-Chem 5.4, Q-Chem, Inc., Pleasanton, CA (2021)

 E. Epifanovsky,  A. T. B. Gilbert,  Xintian Feng,  Joonho Lee,  Yuezhi Mao,  
 N. Mardirossian,  P. Pokhilko,  A. White,  M. Wormit,  M. P. Coons,  
 A. L. Dempwolff,  Zhengting Gan,  D. Hait,  P. R. Horn,  L. D. Jacobson,  
 I. Kaliman,  J. Kussmann,  A. W. Lange,  Ka Un Lao,  D. S. Levine,  Jie Liu,  
 S. C. McKenzie,  A. F. Morrison,  K. Nanda,  F. Plasser,  D. R. Rehn,  
 M. L. Vidal,  Zhi-Qiang You,  Ying Zhu,  B. Alam,  B. Albrecht,  
 A. Aldossary,  E. Alguire,  J. H. Andersen,  D. Barton,  K. Begam,  A. Behn,  
 Y. A. Bernard,  E. J. Berquist,  H. Burton,  A. Carreras,  K. Carter-Fenk,  
 R. Chakraborty,  A. D. Chien,  K. D. Closser,  V. Cofer-Shabica,  
 S. Dasgupta,  Jia Deng,  M. de Wergifosse,  M. Diedenhofen,  Hainam Do,  
 S. Ehlert,  Po-Tung Fang,  S. Fatehi,  Qingguo Feng,  J. Gayvert,  
 Qinghui Ge,  G. Gidofalvi,  M. Goldey,  J. Gomes,  C. Gonzalez-Espinoza,  
 S. Gulania,  A. Gunina,  M. W. D. Hanson-Heine,  P. H. P. Harbach,  
 A. W. Hauser,  M. F. Herbst,  M. Hernandez Vera,  M. Hodecker,  
 Z. C. Holden,  S. Houck,  Xunkun Huang,  Kerwin Hui,  B. C. Huynh,  
 M. Ivanov,  Hyunjun Ji,  Hanjie Jiang,  B. Kaduk,  S. Kaehler,  
 K. Khistyaev,  Jaehoon Kim,  P. Klunzinger,  Z. Koczor-Benda,  
 Joong Hoon Koh,  D. Kosenkov,  L. Koulias,  T. Kowalczyk,  C. M. Krauter,  
 K. Kue,  A. Kunitsa,  T. Kus,  A. Landau,  K. V. Lawler,  D. Lefrancois,  
 S. Lehtola,  Rain Li,  Yi-Pei Li,  Jiashu Liang,  M. Liebenthal,  
 Hung-Hsuan Lin,  You-Sheng Lin,  Fenglai Liu,  Kuan-Yu Liu,  
 M. Loipersberger,  A. Luenser,  A. Manjanath,  P. Manohar,  E. Mansoor,  
 S. F. Manzer,  Shan-Ping Mao,  A. V. Marenich,  T. Markovich,  S. Mason,  
 S. A. Maurer,  P. F. McLaughlin,  M. F. S. J. Menger,  J.-M. Mewes,  
 S. A. Mewes,  P. Morgante,  J. W. Mullinax,  T. S. Nguyen-Beck,  
 K. J. Oosterbaan,  G. Paran,  Alexander C. Paul,  Suranjan K. Paul,  
 F. Pavosevic,  Zheng Pei,  S. Prager,  E. I. Proynov,  E. Ramos,  B. Rana,  
 A. E. Rask,  A. Rettig,  R. M. Richard,  F. Rob,  E. Rossomme,  T. Scheele,  
 M. Scheurer,  M. Schneider,  N. Sergueev,  S. M. Sharada,  W. Skomorowski,  
 D. W. Small,  C. J. Stein,  Yu-Chuan Su,  E. J. Sundstrom,  Zhen Tao,  
 J. Thirman,  T. Tsuchimochi,  N. M. Tubman,  S. P. Veccham,  O. Vydrov,  
 J. Wenzel,  J. Witte,  A. Yamada,  Kun Yao,  S. Yeganeh,  S. R. Yost,  
 A. Zech,  Igor Ying Zhang,  Xing Zhang,  Yu Zhang,  D. Zuev,  
 A. Aspuru-Guzik,  A. T. Bell,  N. A. Besley,  K. B. Bravaya,  B. R. Brooks,  
 D. Casanova,  Jeng-Da Chai,  S. Coriani,  C. J. Cramer,  
 A. E. DePrince, III,  R. A. DiStasio Jr.,  A. Dreuw,  B. D. Dunietz,  
 T. R. Furlani,  W. A. Goddard III,  S. Grimme,  S. Hammes-Schiffer,  
 T. Head-Gordon,  W. J. Hehre,  Chao-Ping Hsu,  T.-C. Jagau,  Yousung Jung,  
 A. Klamt,  Jing Kong,  D. S. Lambrecht,  WanZhen Liang,  N. J. Mayhall,  
 C. W. McCurdy,  J. B. Neaton,  C. Ochsenfeld,  J. A. Parkhill,  R. Peverati,  
 V. A. Rassolov,  Yihan Shao,  L. V. Slipchenko,  T. Stauch,  R. P. Steele,  
 J. E. Subotnik,  A. J. W. Thom,  A. Tkatchenko,  D. G. Truhlar,  
 T. Van Voorhis,  T. A. Wesolowski,  K. B. Whaley,  H. L. Woodcock III,  
 P. M. Zimmerman,  S. Faraji,  P. M. W. Gill,  M. Head-Gordon,  
 J. M. Herbert,  A. I. Krylov

 Contributors to earlier versions of Q-Chem not listed above: 
 R. D. Adamson,  B. Austin,  R. Baer,  J. Baker,  G. J. O. Beran,  
 K. Brandhorst,  S. T. Brown,  E. F. C. Byrd,  A. K. Chakraborty,  
 G. K. L. Chan,  Chun-Min Chang,  Yunqing Chen,  C.-L. Cheng,  
 Siu Hung Chien,  D. M. Chipman,  D. L. Crittenden,  H. Dachsel,  
 R. J. Doerksen,  A. D. Dutoi,  R. G. Edgar,  J. Fosso-Tande,  
 L. Fusti-Molnar,  D. Ghosh,  A. Ghysels,  A. Golubeva-Zadorozhnaya,  
 J. Gonthier,  M. S. Gordon,  S. R. Gwaltney,  G. Hawkins,  J. E. Herr,  
 A. Heyden,  S. Hirata,  E. G. Hohenstein,  G. Kedziora,  F. J. Keil,  
 C. Kelley,  Jihan Kim,  R. A. King,  R. Z. Khaliullin,  P. P. Korambath,  
 W. Kurlancheek,  A. Laurent,  A. M. Lee,  M. S. Lee,  S. V. Levchenko,  
 Ching Yeh Lin,  D. Liotard,  E. Livshits,  R. C. Lochan,  I. Lotan,  
 L. A. Martinez-Martinez,  P. E. Maslen,  N. Nair,  D. P. O'Neill,  
 D. Neuhauser,  E. Neuscamman,  C. M. Oana,  R. Olivares-Amaya,  R. Olson,  
 T. M. Perrine,  B. Peters,  P. A. Pieniazek,  A. Prociuk,  Y. M. Rhee,  
 J. Ritchie,  M. A. Rohrdanz,  E. Rosta,  N. J. Russ,  H. F. Schaefer III,  
 M. W. Schmidt,  N. E. Schultz,  S. Sharma,  N. Shenvi,  C. D. Sherrill,  
 A. C. Simmonett,  A. Sodt,  T. Stein,  D. Stuck,  K. S. Thanthiriwatte,  
 V. Vanovschi,  L. Vogt,  Tao Wang,  A. Warshel,  M. A. Watson,  
 C. F. Williams,  Q. Wu,  X. Xu,  Jun Yang,  W. Zhang,  Yan Zhao

 Please cite Q-Chem as follows:
 Y. Shao et al., Mol. Phys. 113, 184-215 (2015)
 DOI: 10.1080/00268976.2014.952696

 Q-Chem 5.4.0 for Intel X86 EM64T Linux

 Parts of Q-Chem use Armadillo 9.800.1 (Horizon Scraper).
 http://arma.sourceforge.net/

 Q-Chem begins on Thu Jun 24 09:24:23 2021  

 Host: 
0

     Scratch files written to /scr/lance/134426/qchem55320//
 May1621 |scratch|qcdevops|jenkins|workspace|build_RNUM -1
 Processing $rem in /home/mgcf/software-ws/qchem/qchem_540/config/preferences:
 Processing $rem in /home/lance/.qchemrc:
Applying user defined connections for MM calculations

 Checking the input file for inconsistencies... 	...done.

--------------------------------------------------------------
User input:
--------------------------------------------------------------
$rem
jobtype		freq
gui     	2
!vibman_print	4
max_scf_cycles  500
geom_opt_max_cycles 999
exchange 	omegab97x-d
basis def2-svp
!basis		6-311+G(3df,3pd)
scf_algorithm 	rca_diis
QM_MM_INTERFACE Zeolite
force_field   	charmm27
user_connect   	true
symmetry  	 off
sym_ignore   	true
print_input   	true
qmmm_print   	false
qm_mm   	true
model_system_mult 1
qmmm_full_hessian 	false
mem_total   1000000000
mem_static   10000
pop_mulliken 	false
!nbo	true
isotopes true
$end

$qm_atoms
1
2
3
4
5
6
7
8
9
10
11
12
13
14
15
16
17
18
19
20
21
22
23
24
25
26
27
28
29
30
31
32
33
34
35
36
37
38
39
40
41
42
43
44
45
46
47
48
49
50
51
52
53
54
55
56
57
58
59
60
61
62
$end

$isotopes
1 0
26
63 100000000000000000
64 100000000000000000
65 100000000000000000
66 100000000000000000
67 100000000000000000
68 100000000000000000
69 100000000000000000
70 100000000000000000
71 100000000000000000
72 100000000000000000
73 100000000000000000
74 100000000000000000
75 100000000000000000
76 100000000000000000
77 100000000000000000
78 100000000000000000
79 100000000000000000
80 100000000000000000
81 100000000000000000
82 100000000000000000
83 100000000000000000
84 100000000000000000
85 100000000000000000
86 100000000000000000
87 100000000000000000
88 100000000000000000
$end

$comment
Atom   type   and   names
-1   Oxygen   in   SiO4
-2   Silicon   in   SiO4
-3   H for terminal in SiO4
-4   H hydrolysis
-23  Si right out of T5 and has one connectin to QM
-22  Si right out of T5 and has two connectin to QM
$end

$opt
fixed
63	XYZ
64	XYZ
65	XYZ
66	XYZ
67	XYZ
68	XYZ
69	XYZ
70	XYZ
71	XYZ
72	XYZ
73	XYZ
74	XYZ
75	XYZ
76	XYZ
77	XYZ
78	XYZ
79	XYZ
80	XYZ
81	XYZ
82	XYZ
83	XYZ
84	XYZ
85	XYZ
86	XYZ
87	XYZ
88	XYZ
89	XYZ
90	XYZ
91	XYZ
92	XYZ
93	XYZ
94	XYZ
95	XYZ
96	XYZ
97	XYZ
98	XYZ
99	XYZ
100	XYZ
101	XYZ
102	XYZ
103	XYZ
104	XYZ
105	XYZ
106	XYZ
107	XYZ
108	XYZ
109	XYZ
110	XYZ
111	XYZ
112	XYZ
113	XYZ
114	XYZ
115	XYZ
116	XYZ
117	XYZ
118	XYZ
119	XYZ
120	XYZ
121	XYZ
122	XYZ
123	XYZ
124	XYZ
125	XYZ
126	XYZ
127	XYZ
128	XYZ
129	XYZ
130	XYZ
131	XYZ
132	XYZ
133	XYZ
134	XYZ
135	XYZ
136	XYZ
137	XYZ
138	XYZ
139	XYZ
140	XYZ
141	XYZ
142	XYZ
143	XYZ
144	XYZ
145	XYZ
146	XYZ
147	XYZ
148	XYZ
149	XYZ
150	XYZ
151	XYZ
152	XYZ
153	XYZ
154	XYZ
155	XYZ
156	XYZ
157	XYZ
158	XYZ
159	XYZ
160	XYZ
161	XYZ
162	XYZ
163	XYZ
164	XYZ
165	XYZ
166	XYZ
167	XYZ
168	XYZ
169	XYZ
170	XYZ
171	XYZ
172	XYZ
173	XYZ
174	XYZ
175	XYZ
176	XYZ
177	XYZ
178	XYZ
179	XYZ
180	XYZ
181	XYZ
182	XYZ
183	XYZ
184	XYZ
185	XYZ
186	XYZ
187	XYZ
188	XYZ
189	XYZ
190	XYZ
191	XYZ
192	XYZ
193	XYZ
194	XYZ
195	XYZ
196	XYZ
197	XYZ
198	XYZ
199	XYZ
200	XYZ
201	XYZ
202	XYZ
203	XYZ
204	XYZ
205	XYZ
206	XYZ
207	XYZ
208	XYZ
209	XYZ
210	XYZ
211	XYZ
212	XYZ
213	XYZ
214	XYZ
215	XYZ
216	XYZ
217	XYZ
218	XYZ
219	XYZ
220	XYZ
221	XYZ
222	XYZ
223	XYZ
224	XYZ
225	XYZ
226	XYZ
227	XYZ
228	XYZ
229	XYZ
230	XYZ
231	XYZ
232	XYZ
233	XYZ
234	XYZ
235	XYZ
236	XYZ
237	XYZ
238	XYZ
239	XYZ
240	XYZ
241	XYZ
242	XYZ
243	XYZ
244	XYZ
245	XYZ
246	XYZ
247	XYZ
248	XYZ
249	XYZ
250	XYZ
251	XYZ
252	XYZ
253	XYZ
254	XYZ
255	XYZ
256	XYZ
257	XYZ
258	XYZ
259	XYZ
260	XYZ
261	XYZ
262	XYZ
263	XYZ
264	XYZ
265	XYZ
266	XYZ
267	XYZ
268	XYZ
269	XYZ
270	XYZ
271	XYZ
272	XYZ
273	XYZ
274	XYZ
275	XYZ
276	XYZ
277	XYZ
278	XYZ
279	XYZ
280	XYZ
281	XYZ
282	XYZ
283	XYZ
284	XYZ
285	XYZ
286	XYZ
287	XYZ
288	XYZ
289	XYZ
290	XYZ
291	XYZ
292	XYZ
293	XYZ
294	XYZ
295	XYZ
296	XYZ
297	XYZ
298	XYZ
299	XYZ
300	XYZ
301	XYZ
302	XYZ
303	XYZ
304	XYZ
305	XYZ
306	XYZ
307	XYZ
308	XYZ
309	XYZ
310	XYZ
311	XYZ
312	XYZ
313	XYZ
314	XYZ
315	XYZ
316	XYZ
317	XYZ
318	XYZ
319	XYZ
320	XYZ
321	XYZ
322	XYZ
323	XYZ
324	XYZ
325	XYZ
326	XYZ
327	XYZ
328	XYZ
329	XYZ
330	XYZ
331	XYZ
332	XYZ
333	XYZ
334	XYZ
335	XYZ
336	XYZ
337	XYZ
338	XYZ
339	XYZ
340	XYZ
341	XYZ
342	XYZ
343	XYZ
344	XYZ
345	XYZ
346	XYZ
347	XYZ
348	XYZ
349	XYZ
350	XYZ
351	XYZ
352	XYZ
353	XYZ
354	XYZ
355	XYZ
356	XYZ
357	XYZ
358	XYZ
359	XYZ
360	XYZ
361	XYZ
362	XYZ
363	XYZ
364	XYZ
365	XYZ
366	XYZ
367	XYZ
368	XYZ
369	XYZ
370	XYZ
371	XYZ
372	XYZ
373	XYZ
374	XYZ
375	XYZ
376	XYZ
377	XYZ
378	XYZ
379	XYZ
380	XYZ
381	XYZ
382	XYZ
383	XYZ
384	XYZ
385	XYZ
386	XYZ
387	XYZ
388	XYZ
389	XYZ
390	XYZ
391	XYZ
392	XYZ
393	XYZ
394	XYZ
395	XYZ
396	XYZ
397	XYZ
398	XYZ
399	XYZ
400	XYZ
401	XYZ
402	XYZ
403	XYZ
404	XYZ
405	XYZ
406	XYZ
407	XYZ
408	XYZ
409	XYZ
410	XYZ
411	XYZ
412	XYZ
413	XYZ
414	XYZ
415	XYZ
416	XYZ
417	XYZ
418	XYZ
419	XYZ
420	XYZ
421	XYZ
422	XYZ
423	XYZ
424	XYZ
425	XYZ
426	XYZ
427	XYZ
428	XYZ
429	XYZ
430	XYZ
431	XYZ
432	XYZ
433	XYZ
434	XYZ
435	XYZ
436	XYZ
437	XYZ
438	XYZ
439	XYZ
440	XYZ
441	XYZ
442	XYZ
443	XYZ
444	XYZ
445	XYZ
446	XYZ
447	XYZ
448	XYZ
449	XYZ
450	XYZ
451	XYZ
452	XYZ
453	XYZ
454	XYZ
455	XYZ
456	XYZ
457	XYZ
458	XYZ
459	XYZ
460	XYZ
461	XYZ
462	XYZ
463	XYZ
464	XYZ
465	XYZ
466	XYZ
467	XYZ
468	XYZ
469	XYZ
470	XYZ
471	XYZ
472	XYZ
473	XYZ
474	XYZ
475	XYZ
476	XYZ
477	XYZ
478	XYZ
479	XYZ
480	XYZ
481	XYZ
482	XYZ
483	XYZ
484	XYZ
485	XYZ
486	XYZ
487	XYZ
488	XYZ
489	XYZ
490	XYZ
491	XYZ
492	XYZ
493	XYZ
494	XYZ
495	XYZ
496	XYZ
497	XYZ
498	XYZ
499	XYZ
500	XYZ
501	XYZ
502	XYZ
503	XYZ
504	XYZ
505	XYZ
506	XYZ
507	XYZ
508	XYZ
509	XYZ
510	XYZ
511	XYZ
512	XYZ
513	XYZ
514	XYZ
515	XYZ
516	XYZ
517	XYZ
518	XYZ
519	XYZ
520	XYZ
521	XYZ
522	XYZ
523	XYZ
524	XYZ
525	XYZ
526	XYZ
527	XYZ
528	XYZ
529	XYZ
530	XYZ
531	XYZ
532	XYZ
533	XYZ
534	XYZ
535	XYZ
536	XYZ
537	XYZ
538	XYZ
539	XYZ
540	XYZ
541	XYZ
542	XYZ
543	XYZ
544	XYZ
545	XYZ
546	XYZ
547	XYZ
548	XYZ
549	XYZ
550	XYZ
551	XYZ
552	XYZ
553	XYZ
554	XYZ
555	XYZ
556	XYZ
557	XYZ
558	XYZ
559	XYZ
560	XYZ
561	XYZ
562	XYZ
563	XYZ
564	XYZ
565	XYZ
566	XYZ
567	XYZ
568	XYZ
569	XYZ
570	XYZ
571	XYZ
572	XYZ
573	XYZ
574	XYZ
575	XYZ
576	XYZ
577	XYZ
578	XYZ
579	XYZ
580	XYZ
581	XYZ
582	XYZ
583	XYZ
584	XYZ
585	XYZ
586	XYZ
587	XYZ
588	XYZ
589	XYZ
590	XYZ
591	XYZ
592	XYZ
593	XYZ
594	XYZ
595	XYZ
596	XYZ
597	XYZ
598	XYZ
599	XYZ
600	XYZ
601	XYZ
602	XYZ
603	XYZ
604	XYZ
605	XYZ
606	XYZ
607	XYZ
608	XYZ
609	XYZ
610	XYZ
611	XYZ
612	XYZ
613	XYZ
614	XYZ
615	XYZ
616	XYZ
617	XYZ
618	XYZ
619	XYZ
620	XYZ
621	XYZ
622	XYZ
623	XYZ
624	XYZ
625	XYZ
626	XYZ
627	XYZ
628	XYZ
629	XYZ
630	XYZ
631	XYZ
632	XYZ
633	XYZ
634	XYZ
635	XYZ
636	XYZ
637	XYZ
638	XYZ
639	XYZ
640	XYZ
641	XYZ
642	XYZ
643	XYZ
644	XYZ
645	XYZ
646	XYZ
647	XYZ
648	XYZ
649	XYZ
650	XYZ
651	XYZ
652	XYZ
653	XYZ
654	XYZ
655	XYZ
656	XYZ
657	XYZ
658	XYZ
659	XYZ
660	XYZ
661	XYZ
662	XYZ
663	XYZ
664	XYZ
665	XYZ
666	XYZ
667	XYZ
668	XYZ
669	XYZ
670	XYZ
671	XYZ
672	XYZ
673	XYZ
674	XYZ
675	XYZ
676	XYZ
677	XYZ
678	XYZ
679	XYZ
680	XYZ
681	XYZ
682	XYZ
683	XYZ
684	XYZ
685	XYZ
686	XYZ
687	XYZ
688	XYZ
689	XYZ
690	XYZ
691	XYZ
692	XYZ
693	XYZ
694	XYZ
695	XYZ
696	XYZ
697	XYZ
698	XYZ
699	XYZ
700	XYZ
701	XYZ
702	XYZ
703	XYZ
704	XYZ
705	XYZ
706	XYZ
707	XYZ
708	XYZ
709	XYZ
710	XYZ
711	XYZ
712	XYZ
713	XYZ
714	XYZ
715	XYZ
716	XYZ
717	XYZ
718	XYZ
719	XYZ
720	XYZ
721	XYZ
722	XYZ
723	XYZ
724	XYZ
725	XYZ
726	XYZ
727	XYZ
728	XYZ
729	XYZ
730	XYZ
731	XYZ
732	XYZ
733	XYZ
734	XYZ
735	XYZ
736	XYZ
737	XYZ
738	XYZ
739	XYZ
740	XYZ
741	XYZ
742	XYZ
743	XYZ
744	XYZ
745	XYZ
746	XYZ
747	XYZ
748	XYZ
749	XYZ
750	XYZ
751	XYZ
752	XYZ
753	XYZ
754	XYZ
755	XYZ
756	XYZ
757	XYZ
758	XYZ
759	XYZ
760	XYZ
761	XYZ
762	XYZ
763	XYZ
764	XYZ
765	XYZ
766	XYZ
767	XYZ
768	XYZ
769	XYZ
770	XYZ
771	XYZ
772	XYZ
773	XYZ
774	XYZ
775	XYZ
776	XYZ
777	XYZ
778	XYZ
779	XYZ
780	XYZ
781	XYZ
782	XYZ
783	XYZ
784	XYZ
785	XYZ
786	XYZ
787	XYZ
788	XYZ
789	XYZ
790	XYZ
791	XYZ
792	XYZ
793	XYZ
794	XYZ
795	XYZ
796	XYZ
797	XYZ
798	XYZ
799	XYZ
800	XYZ
801	XYZ
802	XYZ
803	XYZ
804	XYZ
805	XYZ
806	XYZ
807	XYZ
808	XYZ
809	XYZ
810	XYZ
811	XYZ
812	XYZ
813	XYZ
814	XYZ
815	XYZ
816	XYZ
817	XYZ
818	XYZ
819	XYZ
820	XYZ
821	XYZ
822	XYZ
823	XYZ
824	XYZ
825	XYZ
826	XYZ
827	XYZ
828	XYZ
829	XYZ
830	XYZ
831	XYZ
832	XYZ
833	XYZ
834	XYZ
835	XYZ
836	XYZ
837	XYZ
838	XYZ
839	XYZ
840	XYZ
841	XYZ
842	XYZ
843	XYZ
844	XYZ
845	XYZ
846	XYZ
847	XYZ
848	XYZ
849	XYZ
850	XYZ
851	XYZ
852	XYZ
853	XYZ
854	XYZ
855	XYZ
856	XYZ
857	XYZ
858	XYZ
859	XYZ
860	XYZ
861	XYZ
862	XYZ
863	XYZ
864	XYZ
865	XYZ
866	XYZ
867	XYZ
868	XYZ
869	XYZ
870	XYZ
871	XYZ
872	XYZ
873	XYZ
874	XYZ
875	XYZ
876	XYZ
877	XYZ
878	XYZ
879	XYZ
880	XYZ
881	XYZ
882	XYZ
883	XYZ
884	XYZ
885	XYZ
886	XYZ
887	XYZ
888	XYZ
889	XYZ
890	XYZ
891	XYZ
892	XYZ
893	XYZ
894	XYZ
895	XYZ
896	XYZ
897	XYZ
898	XYZ
899	XYZ
900	XYZ
901	XYZ
902	XYZ
903	XYZ
904	XYZ
905	XYZ
906	XYZ
907	XYZ
908	XYZ
909	XYZ
910	XYZ
911	XYZ
912	XYZ
913	XYZ
914	XYZ
915	XYZ
916	XYZ
917	XYZ
918	XYZ
919	XYZ
920	XYZ
921	XYZ
922	XYZ
923	XYZ
924	XYZ
925	XYZ
926	XYZ
927	XYZ
928	XYZ
929	XYZ
930	XYZ
931	XYZ
932	XYZ
933	XYZ
934	XYZ
935	XYZ
936	XYZ
937	XYZ
938	XYZ
939	XYZ
940	XYZ
941	XYZ
942	XYZ
943	XYZ
944	XYZ
945	XYZ
946	XYZ
947	XYZ
948	XYZ
949	XYZ
950	XYZ
951	XYZ
952	XYZ
953	XYZ
954	XYZ
955	XYZ
956	XYZ
957	XYZ
958	XYZ
959	XYZ
960	XYZ
961	XYZ
962	XYZ
963	XYZ
964	XYZ
965	XYZ
966	XYZ
967	XYZ
968	XYZ
969	XYZ
970	XYZ
971	XYZ
972	XYZ
973	XYZ
974	XYZ
975	XYZ
976	XYZ
977	XYZ
978	XYZ
979	XYZ
980	XYZ
981	XYZ
982	XYZ
983	XYZ
984	XYZ
985	XYZ
986	XYZ
987	XYZ
988	XYZ
989	XYZ
990	XYZ
991	XYZ
992	XYZ
993	XYZ
994	XYZ
995	XYZ
996	XYZ
997	XYZ
998	XYZ
999	XYZ
1000	XYZ
1001	XYZ
1002	XYZ
1003	XYZ
1004	XYZ
1005	XYZ
1006	XYZ
1007	XYZ
1008	XYZ
1009	XYZ
1010	XYZ
1011	XYZ
1012	XYZ
1013	XYZ
1014	XYZ
1015	XYZ
1016	XYZ
1017	XYZ
1018	XYZ
1019	XYZ
1020	XYZ
1021	XYZ
1022	XYZ
1023	XYZ
1024	XYZ
1025	XYZ
1026	XYZ
1027	XYZ
1028	XYZ
1029	XYZ
1030	XYZ
1031	XYZ
1032	XYZ
1033	XYZ
1034	XYZ
1035	XYZ
1036	XYZ
1037	XYZ
1038	XYZ
1039	XYZ
1040	XYZ
1041	XYZ
1042	XYZ
1043	XYZ
1044	XYZ
1045	XYZ
1046	XYZ
1047	XYZ
1048	XYZ
1049	XYZ
1050	XYZ
1051	XYZ
1052	XYZ
1053	XYZ
1054	XYZ
1055	XYZ
1056	XYZ
1057	XYZ
1058	XYZ
1059	XYZ
1060	XYZ
1061	XYZ
1062	XYZ
1063	XYZ
1064	XYZ
1065	XYZ
1066	XYZ
1067	XYZ
1068	XYZ
1069	XYZ
1070	XYZ
1071	XYZ
1072	XYZ
1073	XYZ
1074	XYZ
1075	XYZ
1076	XYZ
1077	XYZ
1078	XYZ
1079	XYZ
1080	XYZ
1081	XYZ
1082	XYZ
1083	XYZ
1084	XYZ
1085	XYZ
1086	XYZ
1087	XYZ
1088	XYZ
1089	XYZ
1090	XYZ
1091	XYZ
1092	XYZ
1093	XYZ
1094	XYZ
1095	XYZ
1096	XYZ
1097	XYZ
1098	XYZ
1099	XYZ
1100	XYZ
1101	XYZ
1102	XYZ
1103	XYZ
1104	XYZ
1105	XYZ
1106	XYZ
1107	XYZ
1108	XYZ
1109	XYZ
1110	XYZ
1111	XYZ
1112	XYZ
1113	XYZ
1114	XYZ
1115	XYZ
1116	XYZ
1117	XYZ
1118	XYZ
1119	XYZ
1120	XYZ
1121	XYZ
1122	XYZ
1123	XYZ
1124	XYZ
1125	XYZ
1126	XYZ
1127	XYZ
1128	XYZ
1129	XYZ
1130	XYZ
1131	XYZ
1132	XYZ
1133	XYZ
1134	XYZ
1135	XYZ
1136	XYZ
1137	XYZ
1138	XYZ
1139	XYZ
1140	XYZ
1141	XYZ
1142	XYZ
1143	XYZ
1144	XYZ
1145	XYZ
1146	XYZ
1147	XYZ
1148	XYZ
1149	XYZ
1150	XYZ
1151	XYZ
1152	XYZ
1153	XYZ
1154	XYZ
1155	XYZ
1156	XYZ
1157	XYZ
1158	XYZ
1159	XYZ
1160	XYZ
1161	XYZ
1162	XYZ
1163	XYZ
1164	XYZ
1165	XYZ
1166	XYZ
1167	XYZ
1168	XYZ
1169	XYZ
1170	XYZ
1171	XYZ
1172	XYZ
1173	XYZ
1174	XYZ
1175	XYZ
1176	XYZ
1177	XYZ
1178	XYZ
1179	XYZ
1180	XYZ
1181	XYZ
1182	XYZ
1183	XYZ
1184	XYZ
1185	XYZ
1186	XYZ
1187	XYZ
1188	XYZ
1189	XYZ
1190	XYZ
1191	XYZ
1192	XYZ
1193	XYZ
1194	XYZ
1195	XYZ
1196	XYZ
1197	XYZ
1198	XYZ
1199	XYZ
1200	XYZ
1201	XYZ
1202	XYZ
1203	XYZ
1204	XYZ
1205	XYZ
1206	XYZ
1207	XYZ
1208	XYZ
1209	XYZ
1210	XYZ
1211	XYZ
1212	XYZ
1213	XYZ
1214	XYZ
1215	XYZ
1216	XYZ
1217	XYZ
1218	XYZ
1219	XYZ
1220	XYZ
1221	XYZ
1222	XYZ
1223	XYZ
1224	XYZ
1225	XYZ
1226	XYZ
1227	XYZ
1228	XYZ
1229	XYZ
1230	XYZ
1231	XYZ
1232	XYZ
1233	XYZ
1234	XYZ
1235	XYZ
1236	XYZ
1237	XYZ
1238	XYZ
1239	XYZ
1240	XYZ
1241	XYZ
1242	XYZ
1243	XYZ
1244	XYZ
1245	XYZ
1246	XYZ
1247	XYZ
1248	XYZ
1249	XYZ
1250	XYZ
1251	XYZ
1252	XYZ
1253	XYZ
1254	XYZ
1255	XYZ
1256	XYZ
1257	XYZ
1258	XYZ
1259	XYZ
1260	XYZ
1261	XYZ
1262	XYZ
1263	XYZ
1264	XYZ
1265	XYZ
1266	XYZ
1267	XYZ
1268	XYZ
1269	XYZ
1270	XYZ
1271	XYZ
1272	XYZ
1273	XYZ
1274	XYZ
1275	XYZ
1276	XYZ
1277	XYZ
1278	XYZ
1279	XYZ
1280	XYZ
1281	XYZ
1282	XYZ
1283	XYZ
1284	XYZ
1285	XYZ
1286	XYZ
1287	XYZ
1288	XYZ
1289	XYZ
1290	XYZ
1291	XYZ
1292	XYZ
1293	XYZ
1294	XYZ
1295	XYZ
1296	XYZ
1297	XYZ
1298	XYZ
1299	XYZ
1300	XYZ
1301	XYZ
1302	XYZ
1303	XYZ
1304	XYZ
1305	XYZ
1306	XYZ
1307	XYZ
1308	XYZ
1309	XYZ
1310	XYZ
1311	XYZ
1312	XYZ
1313	XYZ
1314	XYZ
1315	XYZ
1316	XYZ
1317	XYZ
1318	XYZ
1319	XYZ
1320	XYZ
1321	XYZ
1322	XYZ
1323	XYZ
1324	XYZ
1325	XYZ
1326	XYZ
1327	XYZ
1328	XYZ
1329	XYZ
1330	XYZ
1331	XYZ
1332	XYZ
1333	XYZ
1334	XYZ
1335	XYZ
1336	XYZ
1337	XYZ
1338	XYZ
1339	XYZ
1340	XYZ
1341	XYZ
1342	XYZ
1343	XYZ
1344	XYZ
1345	XYZ
1346	XYZ
1347	XYZ
1348	XYZ
1349	XYZ
1350	XYZ
1351	XYZ
1352	XYZ
1353	XYZ
1354	XYZ
1355	XYZ
1356	XYZ
1357	XYZ
1358	XYZ
1359	XYZ
1360	XYZ
1361	XYZ
1362	XYZ
1363	XYZ
1364	XYZ
1365	XYZ
1366	XYZ
1367	XYZ
1368	XYZ
1369	XYZ
1370	XYZ
1371	XYZ
1372	XYZ
1373	XYZ
1374	XYZ
1375	XYZ
1376	XYZ
1377	XYZ
1378	XYZ
1379	XYZ
1380	XYZ
1381	XYZ
1382	XYZ
1383	XYZ
1384	XYZ
1385	XYZ
1386	XYZ
1387	XYZ
1388	XYZ
1389	XYZ
1390	XYZ
1391	XYZ
1392	XYZ
1393	XYZ
1394	XYZ
1395	XYZ
1396	XYZ
1397	XYZ
1398	XYZ
1399	XYZ
1400	XYZ
1401	XYZ
1402	XYZ
1403	XYZ
1404	XYZ
1405	XYZ
1406	XYZ
1407	XYZ
1408	XYZ
1409	XYZ
1410	XYZ
1411	XYZ
1412	XYZ
1413	XYZ
1414	XYZ
1415	XYZ
1416	XYZ
1417	XYZ
1418	XYZ
1419	XYZ
1420	XYZ
1421	XYZ
1422	XYZ
1423	XYZ
1424	XYZ
1425	XYZ
1426	XYZ
1427	XYZ
1428	XYZ
1429	XYZ
1430	XYZ
1431	XYZ
1432	XYZ
1433	XYZ
1434	XYZ
1435	XYZ
1436	XYZ
1437	XYZ
1438	XYZ
1439	XYZ
1440	XYZ
1441	XYZ
1442	XYZ
1443	XYZ
1444	XYZ
1445	XYZ
1446	XYZ
1447	XYZ
1448	XYZ
1449	XYZ
1450	XYZ
1451	XYZ
1452	XYZ
1453	XYZ
1454	XYZ
1455	XYZ
1456	XYZ
1457	XYZ
1458	XYZ
1459	XYZ
1460	XYZ
1461	XYZ
1462	XYZ
1463	XYZ
1464	XYZ
1465	XYZ
1466	XYZ
1467	XYZ
1468	XYZ
1469	XYZ
1470	XYZ
1471	XYZ
1472	XYZ
1473	XYZ
1474	XYZ
1475	XYZ
1476	XYZ
1477	XYZ
1478	XYZ
1479	XYZ
1480	XYZ
1481	XYZ
1482	XYZ
1483	XYZ
1484	XYZ
1485	XYZ
1486	XYZ
1487	XYZ
1488	XYZ
1489	XYZ
1490	XYZ
1491	XYZ
1492	XYZ
1493	XYZ
1494	XYZ
1495	XYZ
1496	XYZ
1497	XYZ
1498	XYZ
1499	XYZ
1500	XYZ
1501	XYZ
1502	XYZ
1503	XYZ
1504	XYZ
1505	XYZ
1506	XYZ
1507	XYZ
1508	XYZ
1509	XYZ
1510	XYZ
1511	XYZ
1512	XYZ
1513	XYZ
1514	XYZ
1515	XYZ
1516	XYZ
1517	XYZ
1518	XYZ
1519	XYZ
1520	XYZ
1521	XYZ
1522	XYZ
1523	XYZ
1524	XYZ
1525	XYZ
1526	XYZ
1527	XYZ
1528	XYZ
1529	XYZ
1530	XYZ
1531	XYZ
1532	XYZ
1533	XYZ
1534	XYZ
1535	XYZ
1536	XYZ
1537	XYZ
1538	XYZ
1539	XYZ
1540	XYZ
1541	XYZ
1542	XYZ
1543	XYZ
1544	XYZ
1545	XYZ
1546	XYZ
1547	XYZ
1548	XYZ
1549	XYZ
1550	XYZ
1551	XYZ
1552	XYZ
1553	XYZ
1554	XYZ
1555	XYZ
1556	XYZ
1557	XYZ
1558	XYZ
1559	XYZ
1560	XYZ
1561	XYZ
1562	XYZ
1563	XYZ
1564	XYZ
1565	XYZ
1566	XYZ
1567	XYZ
1568	XYZ
1569	XYZ
1570	XYZ
1571	XYZ
1572	XYZ
1573	XYZ
1574	XYZ
1575	XYZ
1576	XYZ
1577	XYZ
1578	XYZ
1579	XYZ
1580	XYZ
1581	XYZ
1582	XYZ
1583	XYZ
1584	XYZ
1585	XYZ
1586	XYZ
1587	XYZ
1588	XYZ
1589	XYZ
1590	XYZ
1591	XYZ
1592	XYZ
1593	XYZ
1594	XYZ
1595	XYZ
1596	XYZ
1597	XYZ
1598	XYZ
1599	XYZ
1600	XYZ
1601	XYZ
1602	XYZ
1603	XYZ
1604	XYZ
1605	XYZ
1606	XYZ
1607	XYZ
1608	XYZ
1609	XYZ
1610	XYZ
1611	XYZ
1612	XYZ
1613	XYZ
1614	XYZ
1615	XYZ
1616	XYZ
1617	XYZ
1618	XYZ
1619	XYZ
1620	XYZ
1621	XYZ
1622	XYZ
1623	XYZ
1624	XYZ
1625	XYZ
1626	XYZ
1627	XYZ
1628	XYZ
1629	XYZ
1630	XYZ
1631	XYZ
1632	XYZ
1633	XYZ
1634	XYZ
1635	XYZ
1636	XYZ
1637	XYZ
1638	XYZ
1639	XYZ
1640	XYZ
1641	XYZ
1642	XYZ
1643	XYZ
1644	XYZ
1645	XYZ
1646	XYZ
1647	XYZ
1648	XYZ
1649	XYZ
1650	XYZ
1651	XYZ
1652	XYZ
1653	XYZ
1654	XYZ
1655	XYZ
1656	XYZ
1657	XYZ
1658	XYZ
1659	XYZ
1660	XYZ
1661	XYZ
1662	XYZ
1663	XYZ
1664	XYZ
1665	XYZ
1666	XYZ
1667	XYZ
1668	XYZ
1669	XYZ
1670	XYZ
1671	XYZ
1672	XYZ
1673	XYZ
1674	XYZ
1675	XYZ
1676	XYZ
1677	XYZ
1678	XYZ
1679	XYZ
1680	XYZ
1681	XYZ
1682	XYZ
1683	XYZ
1684	XYZ
1685	XYZ
1686	XYZ
1687	XYZ
1688	XYZ
1689	XYZ
1690	XYZ
1691	XYZ
1692	XYZ
1693	XYZ
1694	XYZ
1695	XYZ
1696	XYZ
1697	XYZ
1698	XYZ
1699	XYZ
1700	XYZ
1701	XYZ
1702	XYZ
1703	XYZ
1704	XYZ
1705	XYZ
1706	XYZ
1707	XYZ
1708	XYZ
1709	XYZ
1710	XYZ
1711	XYZ
1712	XYZ
1713	XYZ
1714	XYZ
1715	XYZ
1716	XYZ
1717	XYZ
1718	XYZ
1719	XYZ
1720	XYZ
1721	XYZ
1722	XYZ
1723	XYZ
1724	XYZ
1725	XYZ
1726	XYZ
1727	XYZ
1728	XYZ
1729	XYZ
1730	XYZ
1731	XYZ
1732	XYZ
1733	XYZ
1734	XYZ
1735	XYZ
1736	XYZ
1737	XYZ
1738	XYZ
1739	XYZ
1740	XYZ
1741	XYZ
1742	XYZ
1743	XYZ
1744	XYZ
1745	XYZ
1746	XYZ
1747	XYZ
1748	XYZ
1749	XYZ
1750	XYZ
1751	XYZ
1752	XYZ
1753	XYZ
1754	XYZ
1755	XYZ
1756	XYZ
1757	XYZ
1758	XYZ
1759	XYZ
1760	XYZ
1761	XYZ
1762	XYZ
1763	XYZ
1764	XYZ
1765	XYZ
1766	XYZ
1767	XYZ
1768	XYZ
1769	XYZ
1770	XYZ
1771	XYZ
1772	XYZ
1773	XYZ
1774	XYZ
1775	XYZ
1776	XYZ
1777	XYZ
1778	XYZ
1779	XYZ
1780	XYZ
1781	XYZ
1782	XYZ
1783	XYZ
1784	XYZ
1785	XYZ
1786	XYZ
1787	XYZ
1788	XYZ
1789	XYZ
1790	XYZ
1791	XYZ
1792	XYZ
1793	XYZ
1794	XYZ
1795	XYZ
1796	XYZ
1797	XYZ
1798	XYZ
1799	XYZ
1800	XYZ
1801	XYZ
1802	XYZ
1803	XYZ
1804	XYZ
1805	XYZ
1806	XYZ
1807	XYZ
1808	XYZ
1809	XYZ
1810	XYZ
1811	XYZ
1812	XYZ
1813	XYZ
1814	XYZ
1815	XYZ
1816	XYZ
1817	XYZ
1818	XYZ
1819	XYZ
1820	XYZ
1821	XYZ
1822	XYZ
1823	XYZ
1824	XYZ
1825	XYZ
1826	XYZ
1827	XYZ
1828	XYZ
1829	XYZ
1830	XYZ
1831	XYZ
1832	XYZ
1833	XYZ
1834	XYZ
1835	XYZ
1836	XYZ
1837	XYZ
1838	XYZ
1839	XYZ
1840	XYZ
1841	XYZ
1842	XYZ
1843	XYZ
1844	XYZ
1845	XYZ
1846	XYZ
1847	XYZ
1848	XYZ
1849	XYZ
1850	XYZ
1851	XYZ
1852	XYZ
1853	XYZ
1854	XYZ
1855	XYZ
1856	XYZ
1857	XYZ
1858	XYZ
1859	XYZ
1860	XYZ
1861	XYZ
1862	XYZ
1863	XYZ
1864	XYZ
1865	XYZ
1866	XYZ
1867	XYZ
1868	XYZ
1869	XYZ
1870	XYZ
1871	XYZ
1872	XYZ
1873	XYZ
1874	XYZ
1875	XYZ
1876	XYZ
1877	XYZ
1878	XYZ
1879	XYZ
1880	XYZ
1881	XYZ
1882	XYZ
1883	XYZ
1884	XYZ
1885	XYZ
1886	XYZ
1887	XYZ
1888	XYZ
1889	XYZ
1890	XYZ
1891	XYZ
1892	XYZ
1893	XYZ
1894	XYZ
1895	XYZ
1896	XYZ
1897	XYZ
1898	XYZ
1899	XYZ
1900	XYZ
1901	XYZ
1902	XYZ
1903	XYZ
1904	XYZ
1905	XYZ
1906	XYZ
1907	XYZ
1908	XYZ
1909	XYZ
1910	XYZ
1911	XYZ
1912	XYZ
1913	XYZ
1914	XYZ
1915	XYZ
1916	XYZ
1917	XYZ
1918	XYZ
1919	XYZ
1920	XYZ
1921	XYZ
1922	XYZ
1923	XYZ
1924	XYZ
1925	XYZ
1926	XYZ
1927	XYZ
1928	XYZ
1929	XYZ
1930	XYZ
1931	XYZ
1932	XYZ
1933	XYZ
1934	XYZ
1935	XYZ
1936	XYZ
1937	XYZ
1938	XYZ
1939	XYZ
1940	XYZ
1941	XYZ
1942	XYZ
1943	XYZ
1944	XYZ
1945	XYZ
1946	XYZ
1947	XYZ
1948	XYZ
1949	XYZ
1950	XYZ
1951	XYZ
1952	XYZ
1953	XYZ
1954	XYZ
1955	XYZ
1956	XYZ
1957	XYZ
1958	XYZ
1959	XYZ
1960	XYZ
1961	XYZ
1962	XYZ
1963	XYZ
1964	XYZ
1965	XYZ
1966	XYZ
1967	XYZ
1968	XYZ
1969	XYZ
1970	XYZ
1971	XYZ
1972	XYZ
1973	XYZ
1974	XYZ
1975	XYZ
1976	XYZ
1977	XYZ
1978	XYZ
1979	XYZ
1980	XYZ
1981	XYZ
1982	XYZ
1983	XYZ
1984	XYZ
1985	XYZ
1986	XYZ
1987	XYZ
1988	XYZ
1989	XYZ
1990	XYZ
1991	XYZ
1992	XYZ
1993	XYZ
1994	XYZ
1995	XYZ
1996	XYZ
1997	XYZ
1998	XYZ
1999	XYZ
2000	XYZ
2001	XYZ
2002	XYZ
2003	XYZ
2004	XYZ
2005	XYZ
2006	XYZ
2007	XYZ
2008	XYZ
2009	XYZ
2010	XYZ
2011	XYZ
2012	XYZ
2013	XYZ
2014	XYZ
2015	XYZ
2016	XYZ
2017	XYZ
2018	XYZ
2019	XYZ
2020	XYZ
2021	XYZ
2022	XYZ
2023	XYZ
2024	XYZ
2025	XYZ
2026	XYZ
2027	XYZ
2028	XYZ
2029	XYZ
2030	XYZ
2031	XYZ
2032	XYZ
2033	XYZ
2034	XYZ
2035	XYZ
2036	XYZ
2037	XYZ
2038	XYZ
2039	XYZ
2040	XYZ
2041	XYZ
2042	XYZ
2043	XYZ
2044	XYZ
2045	XYZ
2046	XYZ
2047	XYZ
2048	XYZ
2049	XYZ
2050	XYZ
2051	XYZ
2052	XYZ
2053	XYZ
2054	XYZ
2055	XYZ
2056	XYZ
2057	XYZ
2058	XYZ
2059	XYZ
2060	XYZ
2061	XYZ
2062	XYZ
2063	XYZ
2064	XYZ
2065	XYZ
2066	XYZ
2067	XYZ
2068	XYZ
2069	XYZ
2070	XYZ
2071	XYZ
2072	XYZ
2073	XYZ
2074	XYZ
2075	XYZ
2076	XYZ
2077	XYZ
2078	XYZ
2079	XYZ
2080	XYZ
2081	XYZ
2082	XYZ
2083	XYZ
2084	XYZ
2085	XYZ
2086	XYZ
2087	XYZ
2088	XYZ
2089	XYZ
2090	XYZ
2091	XYZ
2092	XYZ
2093	XYZ
2094	XYZ
2095	XYZ
2096	XYZ
2097	XYZ
2098	XYZ
2099	XYZ
2100	XYZ
2101	XYZ
2102	XYZ
2103	XYZ
2104	XYZ
2105	XYZ
2106	XYZ
2107	XYZ
2108	XYZ
2109	XYZ
2110	XYZ
2111	XYZ
2112	XYZ
2113	XYZ
2114	XYZ
2115	XYZ
2116	XYZ
2117	XYZ
2118	XYZ
2119	XYZ
2120	XYZ
2121	XYZ
2122	XYZ
2123	XYZ
2124	XYZ
2125	XYZ
2126	XYZ
2127	XYZ
2128	XYZ
2129	XYZ
2130	XYZ
2131	XYZ
2132	XYZ
2133	XYZ
2134	XYZ
2135	XYZ
2136	XYZ
2137	XYZ
2138	XYZ
2139	XYZ
2140	XYZ
2141	XYZ
2142	XYZ
2143	XYZ
2144	XYZ
2145	XYZ
2146	XYZ
2147	XYZ
2148	XYZ
2149	XYZ
2150	XYZ
2151	XYZ
2152	XYZ
2153	XYZ
2154	XYZ
2155	XYZ
2156	XYZ
2157	XYZ
2158	XYZ
2159	XYZ
2160	XYZ
2161	XYZ
2162	XYZ
2163	XYZ
2164	XYZ
2165	XYZ
2166	XYZ
2167	XYZ
2168	XYZ
2169	XYZ
2170	XYZ
2171	XYZ
2172	XYZ
2173	XYZ
2174	XYZ
2175	XYZ
2176	XYZ
2177	XYZ
2178	XYZ
2179	XYZ
2180	XYZ
2181	XYZ
2182	XYZ
2183	XYZ
2184	XYZ
2185	XYZ
2186    XYZ
2187    XYZ
2188    XYZ
2189    XYZ
2190    XYZ
2191    XYZ
2192    XYZ
2193    XYZ
endfixed
$end


$force_field_params
NumAtomTypes   3000
AtomType   -1   -0.35   1.77   -0.018
AtomType   -13   -0.35   1.77   -0.018
AtomType   -2   0.7   2.2   -0.047
AtomType   -3   -0.175   0.01   0
AtomType   -4    0.175   0.01   0
AtomType   -23   0.525   2.2   -0.047
AtomType   -22   0.35   2.2   -0.047
AtomType   -21   0.175   2.2   -0.047
AtomType   -111   0   1.34   -0.024
AtomType   -112   0   1.34   -0.035
AtomType   -121   0   2.05   -0.078
AtomType   -122   0   2.01   -0.056
AtomType   -912   0   2.175   -0.055
AtomType   -916   0   1.77   -0.1521
AtomType   -901   0   1.32   -0.022
AtomType   -801   0   0.2245   -0.046
AtomType    -31 0   1.9924  -0.07
AtomType    -32 0   2.09    -0.068
AtomType    -33 0   2.08    -0.064
AtomType    -34 0   1.87    -0.18
AtomType    -35 0   2.00    -0.032
AtomType    -41 0   0.2245  -0.046
AtomType    -42 0   0.87    -0.012
AtomType    -43 0   1.1 -0.046
AtomType    -44 0   1.3582  -0.03
AtomType    -45 0   1.26    -0.026
AtomType    -46 0   1.25    -0.031
AtomType    -47 0   1.34    -0.045
AtomType    -51 0   1.765   -0.1921
AtomType    -61 0   1.98    -0.07
AtomType    -62 0   1.89    -0.06
AtomType    -63 0   1.79    -0.18
Bond   -1   -2   304   1.682
Bond   -1   -3   204   1.489
Bond   -2   -3   100   1.45
Angle   -1   -2   -1   34   150
Angle   -2   -1   -2   30   121.5
Angle   -3   -1   -2   44   118
Angle   -1   -2   -3   30   109.5
Torsion   -2   -1   -2   -1   0.1   120   3
Torsion   -2   -1   -2   -3   0.3   120   3
Bond   -121   -122   222.5   1.528
Bond   -121   -121   222.5   1.528
Bond   -122   -122   222.5   1.528
Bond   -111   -121   309   1.089
Bond   -112   -122   309   1.089
Angle   -121   -122   -122   58   115
Angle   -121   -121   -122   58   115
Angle   -121   -121   -121   58   115
Angle   -122   -122   -122   58   115
Angle   -111   -121   -111   35.5   108.4
Angle   -111   -121   -121   35.5   108.4
Angle   -111   -121   -122   35.5   108.4
Angle   -112   -122   -112   35.5   108.4
Angle   -112   -122   -121   35.5   108.4
Angle   -112   -122   -122   35.5   108.4
Torsion   -111   -121   -122   -122   0.16   120   3
Torsion   -111   -121   -121   -121   0.16   120   3
Torsion   -111   -121   -121   -111   0.16   120   3
Torsion   -111   -121   -122   -112   0.16   120   3
Torsion   -112   -122   -122   -122   95.16   180   2
Torsion   -112   -122   -122   -112   95.16   180   2
Torsion   -121   -122   -122   -122   95.16   180   2
Torsion   -121   -122   -122   -112   95.16   180   2
Torsion   -122   -122   -122   -112   95.16   180   2
Torsion   -112   -122   -122   -121   95.16   180   2
Bond   -13   -1   304   1.682
Bond   -13   -121   222.5   1.55
Angle   -13   -121   -121   40   111
Angle   -13   -121   -1   34   150
Angle   -13   -121   -111   35.5   115
Torsion   -1   -13   -121   -121   0.2   120   3
Torsion   -1   -13   -121   -111   0.2   120   3
Bond   -901   -912   342.991   1.093
Bond   -801   -916   560.905   0.972
Bond   -916   -912   363.214   1.418
Bond   -912   -912   306.432   1.508
Angle   -916   -912   -912   71.39   108.133
Angle   -916   -912   -916   83.192   111.368
Angle   -916   -912   -901   56.205   108.577
Angle   -912   -912   -901   45.77   110.549
Angle   -912   -916   -912   86.143   106.926
Angle   -912   -912   -912   61.243   109.608
Angle   -912   -916   -801   57.069   106.503
Angle   -901   -912   -901   37.134   108.836
Torsion   -912   -916   -912   -912   -0.341   0   1
Torsion   -912   -916   -912   -912   0.378   180   2
Torsion   -912   -916   -912   -912   0.378   0   3
Torsion   -912   -916   -912   -901   0.285   0   1
Torsion   -912   -916   -912   -901   0.16   180   2
Torsion   -912   -916   -912   -901   0.285   0   3
Torsion   -912   -912   -912   -912   0.051   0   1
Torsion   -912   -912   -912   -912   0.341   180   2
Torsion   -912   -912   -912   -912   0.166   0   3
Torsion   -912   -912   -912   -916   -0.344   0   1
Torsion   -912   -912   -912   -916   0.878   180   2
Torsion   -912   -912   -912   -916   0.238   0   3
Torsion   -912   -912   -912   -901   0.32   0   1
Torsion   -912   -912   -912   -901   -0.315   180   2
Torsion   -912   -912   -912   -901   0.132   0   3
Torsion   -912   -912   -916   -801   0.135   180   2
Torsion   -912   -912   -916   -801   0.118   0   3
Torsion   -916   -912   -912   -916   0.204   0   1
Torsion   -916   -912   -912   -916   0.699   180   2
Torsion   -916   -912   -912   -916   0.48   0   3
Torsion   -916   -912   -912   -901   -0.327   0   1
Torsion   -916   -912   -912   -901   0.536   180   2
Torsion   -916   -912   -912   -901   0.14   0   3
Torsion   -916   -912   -916   -801   0.744   0   1
Torsion   -916   -912   -916   -801   -1.7   180   2
Torsion   -916   -912   -916   -801   -0.16   0   3
Torsion   -912   -916   -912   -916   0.115   0   1
Torsion   -912   -916   -912   -916   -0.355   180   2
Torsion   -912   -916   -912   -916   0.361   0   3
Torsion   -901   -912   -912   -901   0.142   0   1
Torsion   -901   -912   -912   -901   -0.693   180   2
Torsion   -901   -912   -912   -901   0.157   0   3
Torsion   -901   -912   -916   -801   0.298   0   1
Torsion   -901   -912   -916   -801   -0.138   180   2
Torsion   -901   -912   -916   -801   0.173   0   3
Imptor	-912   -912   -916   -916       0.000  0     0.00
Imptor	-912   -916   -916   -901     0.000  0     0.00
Imptor	-912   -912   -916   -912       0.000  0     0.00
Imptor	-912   -912   -916   -901     0.000  0     0.00
Imptor	-912   -912   -912   -916       0.000  0     0.00
Imptor	-912   -912   -912   -901     0.000  0     0.00
Imptor	-912   -916   -912   -901     0.000  0     0.00
$end

$molecule
0 1
H         0.1756691711    4.2584664979   -4.3643187582     0	 2	 6	 7	 8
C        -0.2255623579    3.5397821121   -5.1001711139     0	 1	 3	 4	 5
H        -1.1546908342    3.9335481750   -5.5494809662     0	 2	 0	 0	 0
C         0.8116962309    3.2820100927   -6.1853274497     0	 2	 0	 0	 0
H        -0.4799936281    2.6173943555   -4.5585373550     0	 2	 0	 0	 0
H         0.4558900132    2.5340626019   -6.9081836365     0	 1	 0	 0	 0
H         1.7418800308    2.9023456512   -5.7417240291     0	 1	 0	 0	 0
H         1.0579394519    4.2007644716   -6.7371896329     0	 1	 0	 0	 0
H        -1.4710096244    4.8099139942   -3.8498622437     0	 13	 0	 0	 0
Al       -1.3687283106    6.1541808641   -1.8799518730     0	 11	 12	 13	 14
O        -1.9504383375    5.4674169579   -0.4226812424     0	 10	 16	 0	 0
O         0.2308379669    5.7684205903   -2.3215072660     0	 17	 10	 0	 0
O        -2.1575365959    5.1681604059   -3.2520300480     0	 9	 10	 15	 0
O        -1.8314396212    7.7747314360   -2.1791414733     0	 10	 18	 0	 0
Si       -3.7050288886    4.5266548599   -3.4434570540     0	 19	 20	 13	 21
Si       -2.9418225240    5.8614046993    0.7883536095     0	 63	 11	 22	 23
Si        1.7885165974    6.0283104746   -2.1015643162     0	 25	 12	 47	 24
Si       -1.3247715527    9.2319518890   -1.7108406886     0	 26	 27	 14	 64
O        -3.4063384847    2.9625201457   -3.7097806723     0	 28	 15	 0	 0
O        -4.5744050898    4.8106388817   -2.1196984372     0	 29	 15	 0	 0
O        -4.3180828491    5.2437184617   -4.7552417693     0	 30	 15	 0	 0
O        -4.3887429478    5.1021741598    0.5711814294     0	 29	 16	 0	 0
O        -3.2187442353    7.4781350340    0.8315540737     0	 31	 16	 0	 0
O         2.2211166200    7.5985755732   -2.2680857967     0	 17	 32	 0	 0
O         2.5642150822    5.1938470631   -3.2632458795     0	 17	 33	 0	 0
O        -2.1042647394    9.6865034210   -0.3414944354     0	 18	 31	 0	 0
O         0.2928910778    9.2197044974   -1.3740534243     0	 18	 32	 0	 0
Si       -3.8018543878    1.3729373289   -3.7683299512     0	 41	 35	 19	 71
Si       -5.1560261281    4.3282358528   -0.6273689547     0	 73	 74	 20	 22
Si       -5.2428770111    4.9229220407   -6.0790089633     0	 42	 21	 78	 77
Si       -2.7453550632    9.0372828191    1.0171472403     0	 65	 26	 75	 23
Si        1.8749157394    9.1183267667   -1.7687609978     0	 50	 27	 76	 24
Si        3.8563748494    4.2968912357   -3.5873241748     0	 25	 51	 52	 40
Si       -1.6608468121   -0.3020980464   -5.2344755039     0	 36	 35	 68	 38
O        -2.4571320377    0.5087086115   -4.0622208954     0	 34	 28	 0	 0
O        -2.1743231121    0.1928230594   -6.7095061400     0	 34	 46	 0	 0
O        -4.5821347005    0.9850354552   -7.6304316705     0	 43	 46	 0	 0
O        -0.0870187254    0.0429209192   -5.0734867990     0	 34	 45	 0	 0
O         2.3584747501    0.3275684518   -4.1604221480     0	 44	 45	 0	 0
O         3.3680475942    2.7457819172   -3.7525461321     0	 33	 44	 0	 0
O        -4.8906523187    1.1773131271   -4.9757459756     0	 43	 28	 0	 0
O        -5.0297473024    3.3649181052   -6.5364226206     0	 43	 30	 0	 0
Si       -5.3665465082    1.7628847433   -6.4358361891     0	 41	 42	 37	 72
Si        3.7333737133    1.1625786210   -3.8815391772     0	 49	 69	 39	 40
Si        1.4591733586   -0.4147893057   -5.2902797888     0	 70	 38	 39	 48
Si       -3.2692327045    0.0499694627   -7.9277482395     0	 66	 67	 36	 37
O         2.2503999320    5.4998678155   -0.6141162683     0	 17	 53	 0	 0
O         1.9182521813    0.0213931335   -6.7981271481     0	 58	 45	 0	 0
O         4.7730554846    0.9464096390   -5.1327560932     0	 60	 44	 0	 0
O         2.7865973113    9.4593890260   -0.4522888900     0	 56	 32	 0	 0
O         4.9810115106    4.3849935858   -2.4075762527     0	 33	 57	 0	 0
O         4.4895134322    4.8479503681   -4.9725460786     0	 33	 62	 0	 0
Si        3.3464861814    5.6595216038    0.5916306586     0	 55	 79	 54	 47
O         3.8097533228    7.2229834930    0.7079878683     0	 53	 56	 0	 0
O         4.6574067457    4.7428298453    0.2666778740     0	 57	 53	 0	 0
Si        3.4426318172    8.8099138165    0.9006046149     0	 50	 85	 54	 80
Si        5.4464304858    3.9172330287   -0.9007561918     0	 81	 51	 86	 55
Si        2.9704993519   -0.1859488912   -8.0427582905     0	 82	 59	 83	 48
O         4.3616140505    0.6243687028   -7.7702368030     0	 58	 60	 0	 0
Si        5.2448484295    1.3954767060   -6.6387682660     0	 49	 59	 84	 61
O         5.0514391861    3.0047009015   -6.8428023387     0	 60	 62	 0	 0
Si        5.3683323268    4.5193234354   -6.3021371318     0	 52	 61	 87	 88
O        -2.3919239496    5.3159240006    2.1599229265    -1	 89	 16	 0	 0
O        -1.6339239496   10.2779240006   -2.8500770735    -1	 105	 18	 0	 0
O        -1.6339239496    9.0919240006    2.1619229265    -1	 31	 104	 0	 0
O        -2.6189239496    0.5669240006   -9.2740770735    -1	 154	 46	 0	 0
O        -3.7309239496   -1.4740759994   -8.0430770735    -1	 298	 46	 0	 0
O        -1.9259239496   -1.8630759994   -5.0410770735    -1	 34	 295	 0	 0
O         4.3510760504    0.6249240006   -2.5340770735    -1	 44	 199	 0	 0
O         1.5950760504   -1.9940759994   -5.1070770735    -1	 45	 272	 0	 0
O        -4.3829239496    0.9489240006   -2.3730770735    -1	 378	 28	 0	 0
O        -6.9099239496    1.4939240006   -6.5740770735    -1	 43	 243	 0	 0
O        -6.6769239496    4.7479240006   -0.5010770735    -1	 29	 247	 0	 0
O        -4.9879239496    2.7319240006   -0.5360770735    -1	 378	 29	 0	 0
O        -4.0079239496    9.9189240006    1.3939229265    -1	 285	 31	 0	 0
O         2.2850760504   10.1309240006   -2.9210770735    -1	 307	 32	 0	 0
O        -4.7949239496    5.9119240006   -7.2380770735    -1	 30	 384	 0	 0
O        -6.7559239496    5.1679240006   -5.6540770735    -1	 388	 30	 0	 0
O         2.7300760504    5.1249240006    1.9529229265    -1	 90	 53	 0	 0
O         2.3830760504    8.9429240006    2.0869229265    -1	 92	 56	 0	 0
O         5.1540760504    2.3559240006   -0.7240770735    -1	 57	 199	 0	 0
O         2.3100760504    0.3839240006   -9.3650770735    -1	 58	 210	 0	 0
O         3.3110760504   -1.7360759994   -8.1740770735    -1	 58	 275	 0	 0
O         6.7530760504    0.9869240006   -6.8280770735    -1	 226	 60	 0	 0
O         4.7830760504    9.5939240006    1.2319229265    -1	 229	 56	 0	 0
O         6.9860760504    4.2409240006   -0.7540770735    -1	 57	 233	 0	 0
O         6.9070760504    4.6609240006   -5.9080770735    -1	 372	 62	 0	 0
O         4.9490760504    5.5519240006   -7.4210770735    -1	 374	 62	 0	 0
Si       -1.3099239496    5.5669240006    3.3399229265    -23	 97	 93	 63	 96
Si        1.8120760504    5.4429240006    3.2429229265    -23	 95	 93	 94	 79
Si        1.7780760504    3.3789240006    5.5769229265    -2	 98	 99	 100	 94
Si        1.9350760504    8.5479240006    3.5809229265    -23	 101	 102	 95	 80
O         0.2360760504    5.2939240006    2.8579229265    -1	 89	 90	 0	 0
O         2.2420760504    4.3999240006    4.3989229265    -1	 90	 91	 0	 0
O         2.1060760504    6.9359240006    3.8099229265    -1	 90	 92	 0	 0
O        -1.7099239496    4.5489240006    4.4809229265    -1	 89	 103	 0	 0
O        -1.4289239496    7.0809240006    3.8469229265    -1	 89	 104	 0	 0
O         1.9270760504    1.8699240006    5.0429229265    -1	 106	 91	 0	 0
O         2.7300760504    3.5999240006    6.8539229265    -1	 91	 107	 0	 0
O         0.2470760504    3.6579240006    5.9939229265    -1	 91	 103	 0	 0
O         0.4030760504    8.9669240006    3.8159229265    -1	 92	 104	 0	 0
O         2.8710760504    9.3049240006    4.6449229265    -1	 108	 92	 0	 0
Si       -1.3129239496    3.4959240006    5.6339229265    -2	 100	 109	 110	 96
Si       -1.1649239496    8.6549240006    3.6379229265    -23	 97	 65	 101	 111
Si       -1.2019239496   11.2989240006   -4.0170770735    -23	 353	 354	 308	 64
Si        1.6620760504    0.2959240006    5.2519229265    -2	 260	 98	 332	 333
Si        3.3660760504    3.0379240006    8.2199229265    -2	 99	 368	 335	 363
Si        4.2110760504   10.1319240006    4.9869229265    -2	 361	 362	 102	 232
O        -2.1989239496    3.7829240006    6.9449229265    -1	 103	 112	 0	 0
O        -1.5939239496    1.9999240006    5.1089229265    -1	 113	 103	 0	 0
O        -2.0009239496    9.4869240006    4.7359229265    -1	 114	 104	 0	 0
Si       -2.8239239496    3.2679240006    8.3349229265    -2	 395	 109	 390	 391
Si       -1.4389239496    0.4109240006    5.3099229265    -2	 195	 332	 110	 407
Si       -3.2609239496   10.4089240006    5.1259229265    -2	 196	 197	 198	 111
O         2.2980760504   -5.3680759994    3.0869229265    -1	 118	 311	 0	 0
O        -0.1699239496   -5.7060759994    2.2589229265    -1	 145	 118	 0	 0
O         1.5190760504   -7.7230759994    2.2239229265    -1	 118	 119	 0	 0
Si        1.3640760504   -6.1330759994    2.0229229265    -2	 115	 116	 117	 127
Si        1.2370760504   -9.2180759994    1.6999229265    -2	 125	 117	 126	 120
O         1.6350760504  -10.2710759994    2.8519229265    -1	 121	 119	 0	 0
Si        1.2030760504  -11.2930759994    4.0189229265    -2	 122	 123	 124	 120
O         1.3530760504  -12.8040759994    3.4859229265    -1	 121	 1583	 0	 0
O         2.1570760504  -11.0730759994    5.2969229265    -1	 121	 873	 0	 0
O        -0.3259239496  -11.0160759994    4.4369229265    -1	 121	 150	 0	 0
O         2.1240760504   -9.5060759994    0.3869229265    -1	 290	 119	 0	 0
O        -0.3229239496   -9.3800759994    1.3389229265    -1	 148	 119	 0	 0
O         1.8090760504   -5.7310759994    0.5299229265    -1	 118	 288	 0	 0
Si       -3.8339239496   -4.2640759994    3.5689229265    -2	 129	 130	 131	 132
O        -2.5739239496   -5.1870759994    3.1789229265    -1	 145	 128	 0	 0
O        -3.3479239496   -2.7380759994    3.7279229265    -1	 188	 128	 0	 0
O        -4.9479239496   -4.3600759994    2.4109229265    -1	 341	 128	 0	 0
O        -4.4589239496   -4.7800759994    4.9579229265    -1	 133	 128	 0	 0
Si       -5.3459239496   -4.4920759994    6.2699229265    -2	 132	 140	 134	 135
O        -5.0649239496   -2.9970759994    6.7949229265    -1	 133	 190	 0	 0
O        -6.9059239496   -4.6540759994    5.9099229265    -1	 133	 136	 0	 0
Si       -8.4349239496   -4.3770759994    6.3279229265    -2	 137	 138	 139	 135
O        -8.8669239496   -5.3990759994    7.4939229265    -1	 779	 136	 0	 0
O        -9.3879239496   -4.5970759994    5.0509229265    -1	 351	 136	 0	 0
O        -8.5859239496   -2.8660759994    6.8599229265    -1	 193	 136	 0	 0
O        -4.9479239496   -5.5450759994    7.4229229265    -1	 141	 133	 0	 0
Si       -5.3799239496   -6.5670759994    8.5899229265    -2	 140	 142	 143	 144
O        -6.9089239496   -6.2900759994    9.0069229265    -1	 779	 141	 0	 0
O        -4.4259239496   -6.3470759994    9.8679229265    -1	 141	 1910	 0	 0
O        -5.2299239496   -8.0780759994    8.0569229265    -1	 1657	 141	 0	 0
Si       -1.7379239496   -6.0180759994    2.0809229265    -2	 129	 146	 147	 116
O        -2.2079239496   -5.5820759994    0.6049229265    -1	 145	 400	 0	 0
O        -2.0019239496   -7.5920759994    2.2899229265    -1	 145	 148	 0	 0
Si       -1.8519239496   -9.1030759994    1.7569229265    -2	 153	 147	 149	 126
O        -2.2839239496  -10.1250759994    2.9239229265    -1	 148	 150	 0	 0
Si       -1.8859239496  -11.1780759994    4.0759229265    -2	 124	 149	 151	 152
O        -2.7719239496  -10.8900759994    5.3869229265    -1	 150	 1454	 0	 0
O        -2.1679239496  -12.6730759994    3.5519229265    -1	 150	 815	 0	 0
O        -2.8049239496   -9.3230759994    0.4799229265    -1	 402	 148	 0	 0
Si       -1.7329239496    0.2789240006  -10.5850770735       -23	 66	 155	 156	 157
O        -0.1729239496    0.4419240006  -10.2250770735       -1	 154	 210	 0	 0
O        -2.0149239496   -1.2160759994  -11.1100770735       -1	 154	 300	 0	 0
O        -2.1309239496    1.3319240006  -11.7370770735       -1	 154	 966	 0	 0
Si       -5.3039239496   -0.8380759994    1.2589229265    -2	 161	 162	 159	 160
O        -4.8719239496    0.1839240006    0.0919229265    -1	 378	 158	 0	 0
O        -4.3499239496   -0.6190759994    2.5369229265    -1	 188	 158	 0	 0
O        -5.1529239496   -2.3490759994    0.7259229265    -1	 341	 158	 0	 0
O        -6.8329239496   -0.5610759994    1.6769229265    -1	 163	 158	 0	 0
Si       -8.3929239496   -0.7230759994    1.3159229265    -2	 169	 162	 164	 170
O        -9.2789239496   -0.4360759994    2.6269229265    -1	 163	 165	 0	 0
Si       -9.9049239496   -0.9510759994    4.0179229265    -2	 164	 166	 167	 168
O        -8.7909239496   -0.8560759994    5.1759229265    -1	 193	 165	 0	 0
O       -11.1649239496   -0.0290759994    4.4079229265    -1	 1330	 165	 0	 0
O       -10.3899239496   -2.4770759994    3.8589229265    -1	 165	 351	 0	 0
O        -8.7909239496    0.3289240006    0.1639229265    -1	 163	 380	 0	 0
O        -8.6739239496   -2.2190759994    0.7919229265    -1	 163	 344	 0	 0
Si        5.1440760504   -4.3150759994    0.7389229265    -2	 187	 172	 173	 174
O         4.6980760504   -4.7170759994    2.2319229265    -1	 171	 311	 0	 0
O         4.2090760504   -5.0800759994   -0.3250770735    -1	 171	 288	 0	 0
O         6.6760760504   -4.7420759994    0.5029229265    -1	 171	 175	 0	 0
Si        8.2450760504   -4.4300759994    0.6809229265    -2	 182	 181	 174	 176
O         8.7150760504   -4.8670759994    2.1569229265    -1	 177	 175	 0	 0
Si        9.8290760504   -4.7710759994    3.3149229265    -2	 178	 179	 180	 176
O         9.2040760504   -5.2870759994    4.7049229265    -1	 177	 320	 0	 0
O        10.3150760504   -3.2450759994    3.4739229265    -1	 177	 359	 0	 0
O        11.0890760504   -5.6940759994    2.9249229265    -1	 177	 1405	 0	 0
O         8.5100760504   -2.8560759994    0.4729229265    -1	 357	 175	 0	 0
O         9.0820760504   -5.2620759994   -0.4160770735    -1	 183	 175	 0	 0
Si       10.3420760504   -6.1840759994   -0.8060770735    -2	 185	 186	 182	 184
O         9.8560760504   -7.7100759994   -0.9660770735    -1	 183	 1216	 0	 0
O        11.4560760504   -6.0890759994    0.3509229265    -1	 1405	 183	 0	 0
O        10.9670760504   -5.6680759994   -2.1970770735    -1	 569	 183	 0	 0
O         4.9890760504   -2.7260759994    0.5379229265    -1	 171	 355	 0	 0
Si       -3.7139239496   -1.1810759994    3.9029229265    -2	 130	 195	 189	 160
O        -4.7739239496   -1.0050759994    5.1009229265    -1	 188	 190	 0	 0
Si       -5.2189239496   -1.4070759994    6.5939229265    -2	 189	 134	 191	 192
O        -4.2839239496   -0.6420759994    7.6589229265    -1	 190	 408	 0	 0
O        -6.7529239496   -0.9800759994    6.8299229265    -1	 193	 190	 0	 0
Si       -8.3209239496   -1.2920759994    6.6519229265    -2	 194	 139	 166	 192
O        -9.1569239496   -0.4610759994    7.7499229265    -1	 193	 975	 0	 0
O        -2.3739239496   -0.3540759994    4.2449229265    -1	 113	 188	 0	 0
O        -3.8859239496    9.8939240006    6.5149229265    -1	 114	 706	 0	 0
O        -2.7749239496   11.9349240006    5.2849229265    -1	 114	 1060	 0	 0
O        -4.3749239496   10.3139240006    3.9679229265    -1	 114	 285	 0	 0
Si        5.3040760504    0.8439240006   -1.2570770735    -22	 209	 81	 69	 200
O         6.8340760504    0.5669240006   -1.6740770735    -1	 201	 199	 0	 0
Si        8.3940760504    0.7299240006   -1.3140770735    -2	 202	 203	 204	 200
O         8.7910760504   -0.3230759994   -0.1620770735    -1	 201	 357	 0	 0
O         8.6750760504    2.2249240006   -0.7890770735    -1	 233	 201	 0	 0
O         9.2800760504    0.4419240006   -2.6260770735    -1	 201	 205	 0	 0
Si        9.9050760504    0.9569240006   -4.0160770735    -2	 204	 206	 207	 208
O         8.7920760504    0.8619240006   -5.1730770735    -1	 226	 205	 0	 0
O        10.3910760504    2.4829240006   -3.8560770735    -1	 205	 240	 0	 0
O        11.1650760504    0.0349240006   -4.4060770735    -1	 205	 1325	 0	 0
O         4.8730760504   -0.1780759994   -0.0890770735    -1	 355	 199	 0	 0
Si        1.3560760504    0.1649240006  -10.6430770735       -23	 82	 155	 212	 211
O         1.5060760504   -1.3460759994  -11.1750770735       -1	 210	 282	 0	 0
O         1.7880760504    1.1869240006  -11.8100770735       -1	 210	 1799	 0	 0
Si        1.2800760504   -5.5640759994   -3.3120770735    -2	 225	 214	 215	 224
O         2.2330760504   -5.3440759994   -2.0340770735    -1	 213	 288	 0	 0
O         1.4300760504   -7.0750759994   -3.8450770735    -1	 213	 216	 0	 0
Si        1.1650760504   -8.6490759994   -3.6360770735    -2	 217	 215	 222	 223
O         2.0020760504   -9.4800759994   -4.7340770735    -1	 218	 216	 0	 0
Si        3.2620760504  -10.4030759994   -5.1240770735    -2	 217	 219	 220	 221
O         3.8870760504   -9.8870759994   -6.5140770735    -1	 218	 1614	 0	 0
O         2.7760760504  -11.9290759994   -5.2830770735    -1	 218	 1422	 0	 0
O         4.3760760504  -10.3080759994   -3.9660770735    -1	 218	 292	 0	 0
O         1.6350760504   -9.0850759994   -2.1600770735    -1	 290	 216	 0	 0
O        -0.4039239496   -8.9610759994   -3.8140770735    -1	 324	 216	 0	 0
O         1.7110760504   -4.5420759994   -4.4790770735    -1	 213	 272	 0	 0
O        -0.2499239496   -5.2870759994   -2.8940770735    -1	 322	 213	 0	 0
Si        8.3220760504    1.2989240006   -6.6490770735    -23	 227	 84	 206	 228
O         8.5860760504    2.8719240006   -6.8580770735    -1	 226	 372	 0	 0
O         9.1580760504    0.4669240006   -7.7470770735    -1	 226	 462	 0	 0
Si        5.7170760504   10.3589240006    2.2959229265    -23	 85	 230	 231	 232
O         7.2500760504    9.9309240006    2.0599229265    -1	 1321	 229	 0	 0
O         5.5620760504   11.9479240006    2.0949229265    -1	 229	 765	 0	 0
O         5.2710760504    9.9559240006    3.7889229265    -1	 108	 229	 0	 0
Si        8.5200760504    3.8139240006   -0.9900770735    -23	 234	 203	 86	 239
O         9.4550760504    4.5789240006    0.0739229265    -1	 233	 235	 0	 0
Si       10.7950760504    5.4059240006    0.4159229265    -2	 234	 236	 237	 238
O        11.8550760504    5.2299240006   -0.7820770735    -1	 1130	 235	 0	 0
O        11.4310760504    4.8439240006    1.7839229265    -1	 235	 1814	 0	 0
O        10.4290760504    6.9639240006    0.5909229265    -1	 235	 692	 0	 0
O         8.9660760504    4.2169240006   -2.4830770735    -1	 233	 240	 0	 0
Si       10.0260760504    4.0409240006   -3.6810770735    -2	 241	 242	 207	 239
O        11.3660760504    4.8679240006   -3.3390770735    -1	 1130	 240	 0	 0
O         9.3900760504    4.6029240006   -5.0470770735    -1	 372	 240	 0	 0
Si       -8.4429239496    1.9209240006   -6.3380770735    -23	 244	 245	 246	 72
O        -8.8889239496    1.5179240006   -4.8450770735    -1	 243	 382	 0	 0
O        -8.5979239496    3.5099240006   -6.5390770735    -1	 243	 388	 0	 0
O        -9.3779239496    1.1549240006   -7.4030770735    -1	 243	 587	 0	 0
Si       -8.2449239496    4.4359240006   -0.6790770735    -23	 73	 258	 253	 248
O        -9.0809239496    5.2679240006    0.4189229265    -1	 249	 247	 0	 0
Si      -10.3409239496    6.1899240006    0.8089229265    -2	 250	 251	 252	 248
O        -9.8549239496    7.7159240006    0.9679229265    -1	 249	 862	 0	 0
O       -10.9659239496    5.6749240006    2.1979229265    -1	 249	 1959	 0	 0
O       -11.4549239496    6.0949240006   -0.3490770735    -1	 249	 528	 0	 0
O        -8.7139239496    4.8729240006   -2.1550770735    -1	 254	 247	 0	 0
Si       -9.8279239496    4.7779240006   -3.3130770735    -2	 257	 253	 255	 256
O       -10.3139239496    3.2519240006   -3.4720770735    -1	 382	 254	 0	 0
O        -9.2019239496    5.2929240006   -4.7030770735    -1	 388	 254	 0	 0
O       -11.0879239496    5.6999240006   -2.9230770735    -1	 254	 528	 0	 0
O        -8.5089239496    2.8629240006   -0.4700770735    -1	 380	 247	 0	 0
Si        3.7590760504   -1.4580759994    3.7639229265    -2	 260	 261	 270	 271
O         2.4990760504   -0.5360759994    4.1539229265    -1	 106	 259	 0	 0
O         4.8720760504   -1.3630759994    4.9219229265    -1	 259	 262	 0	 0
Si        5.3420760504   -1.7990759994    6.3979229265    -2	 261	 269	 263	 264
O         4.5060760504   -0.9680759994    7.4959229265    -1	 334	 262	 0	 0
O         6.9100760504   -1.4870759994    6.5759229265    -1	 265	 262	 0	 0
Si        8.4440760504   -1.9140759994    6.3399229265    -2	 266	 267	 268	 264
O         9.3790760504   -1.1490759994    7.4049229265    -1	 265	 984	 0	 0
O         8.8890760504   -1.5120759994    4.8469229265    -1	 265	 359	 0	 0
O         8.5990760504   -3.5040759994    6.5409229265    -1	 265	 320	 0	 0
O         5.0780760504   -3.3730759994    6.6069229265    -1	 313	 262	 0	 0
O         4.3840760504   -0.9430759994    2.3739229265    -1	 355	 259	 0	 0
O         3.2730760504   -2.9840759994    3.6049229265    -1	 259	 311	 0	 0
Si        1.3140760504   -3.4890759994   -5.6310770735    -23	 273	 274	 70	 224
O        -0.2459239496   -3.6520759994   -5.9910770735    -1	 295	 272	 0	 0
O         2.2000760504   -3.7770759994   -6.9430770735    -1	 275	 272	 0	 0
Si        2.8250760504   -3.2620759994   -8.3330770735    -23	 281	 274	 83	 276
O         4.0850760504   -4.1840759994   -8.7230770735    -1	 275	 277	 0	 0
Si        4.9220760504   -5.0150759994   -9.8210770735    -2	 276	 278	 279	 280
O         4.4520760504   -4.5790759994  -11.2970770735       -1	 1753	 277	 0	 0
O         6.4890760504   -4.7030759994   -9.6420770735    -1	 572	 277	 0	 0
O         4.6570760504   -6.5890759994   -9.6120770735    -1	 657	 277	 0	 0
O         1.7110760504   -3.3570759994   -9.4910770735    -1	 282	 275	 0	 0
Si        1.2420760504   -2.9200759994  -10.9670770735       -2	 281	 211	 283	 284
O        -0.3269239496   -3.2320759994  -11.1450770735       -1	 282	 300	 0	 0
O         2.0780760504   -3.7520759994  -12.0640770735       -1	 1753	 282	 0	 0
Si       -4.8449239496   10.7499240006    2.4919229265    -23	 286	 75	 198	 287
O        -6.4139239496   10.4379240006    2.3139229265    -1	 618	 285	 0	 0
O        -4.5799239496   12.3239240006    2.2839229265    -1	 1636	 285	 0	 0
Si        2.8690760504   -5.9070759994   -0.6680770735    -2	 289	 173	 214	 127
O         3.2350760504   -7.4640759994   -0.8430770735    -1	 290	 288	 0	 0
Si        2.7490760504   -8.9900759994   -1.0020770735    -2	 289	 291	 125	 222
O         4.0090760504   -9.9130759994   -1.3920770735    -1	 290	 292	 0	 0
Si        4.8450760504  -10.7440759994   -2.4900770735    -2	 291	 221	 294	 293
O         6.4130760504  -10.4320759994   -2.3120770735    -1	 1978	 292	 0	 0
O         4.5810760504  -12.3180759994   -2.2810770735    -1	 978	 292	 0	 0
Si       -1.7759239496   -3.3750759994   -5.5740770735    -23	 273	 297	 68	 296
O        -2.2069239496   -4.3960759994   -4.4070770735    -1	 322	 295	 0	 0
O        -2.7289239496   -3.5940759994   -6.8510770735    -1	 298	 295	 0	 0
Si       -3.3659239496   -3.0320759994   -8.2180770735    -23	 297	 67	 299	 302
O        -2.3059239496   -3.2080759994   -9.4160770735    -1	 298	 300	 0	 0
Si       -1.8599239496   -2.8050759994  -10.9090770735       -2	 283	 156	 299	 301
O        -2.7939239496   -3.5700759994  -11.9730770735       -1	 1570	 300	 0	 0
O        -4.7059239496   -3.8590759994   -8.5610770735    -1	 298	 303	 0	 0
Si       -5.6399239496   -4.6240759994   -9.6250770735    -2	 305	 306	 302	 304
O        -7.1739239496   -4.1960759994   -9.3890770735    -1	 1218	 303	 0	 0
O        -5.4849239496   -6.2130759994   -9.4240770735    -1	 1431	 303	 0	 0
O        -5.1939239496   -4.2210759994  -11.1180770735       -1	 1570	 303	 0	 0
Si        1.8870760504   11.1839240006   -4.0740770735    -23	 308	 76	 309	 310
O         0.3270760504   11.0219240006   -4.4340770735    -1	 105	 307	 0	 0
O         2.7740760504   10.8969240006   -5.3860770735    -1	 307	 1807	 0	 0
O         2.1680760504   12.6799240006   -3.5490770735    -1	 307	 843	 0	 0
Si        3.6380760504   -4.5420759994    3.4299229265    -2	 115	 172	 271	 312
O         4.2750760504   -5.1040759994    4.7969229265    -1	 313	 311	 0	 0
Si        5.2280760504   -4.8840759994    6.0739229265    -2	 314	 269	 319	 312
O         4.7960760504   -5.9060759994    7.2409229265    -1	 313	 315	 0	 0
Si        5.1940760504   -6.9590759994    8.3939229265    -2	 314	 316	 317	 318
O         6.7540760504   -6.7970759994    8.7539229265    -1	 939	 315	 0	 0
O         4.3080760504   -6.6710759994    9.7049229265    -1	 315	 728	 0	 0
O         4.9120760504   -8.4540759994    7.8689229265    -1	 315	 1819	 0	 0
O         6.7570760504   -5.1610759994    5.6569229265    -1	 313	 320	 0	 0
Si        8.3170760504   -4.9990759994    6.0169229265    -2	 321	 178	 268	 319
O         8.7150760504   -6.0520759994    7.1689229265    -1	 939	 320	 0	 0
Si       -1.8099239496   -5.4490759994   -3.2540770735    -2	 225	 331	 323	 296
O        -2.0909239496   -6.9440759994   -3.7790770735    -1	 322	 324	 0	 0
Si       -1.9359239496   -8.5340759994   -3.5780770735    -2	 330	 323	 325	 223
O        -2.8709239496   -9.2990759994   -4.6420770735    -1	 324	 326	 0	 0
Si       -4.2109239496  -10.1260759994   -4.9850770735    -2	 329	 325	 327	 328
O        -5.2709239496   -9.9500759994   -3.7870770735    -1	 404	 326	 0	 0
O        -3.8449239496  -11.6830759994   -5.1600770735    -1	 1466	 326	 0	 0
O        -4.8469239496   -9.5630759994   -6.3510770735    -1	 326	 1888	 0	 0
O        -2.3819239496   -8.9360759994   -2.0850770735    -1	 402	 324	 0	 0
O        -2.6959239496   -5.1610759994   -1.9430770735    -1	 322	 400	 0	 0
O         0.0930760504   -0.0160759994    5.0739229265    -1	 113	 106	 0	 0
O         2.1320760504   -0.1410759994    6.7279229265    -1	 106	 334	 0	 0
Si        3.2460760504   -0.0450759994    7.8859229265    -2	 333	 336	 335	 263
O         3.7320760504    1.4809240006    8.0449229265    -1	 107	 334	 0	 0
O         2.6210760504   -0.5610759994    9.2749229265    -1	 337	 334	 0	 0
Si        1.7340760504   -0.2730759994   10.5879229265       -2	 338	 339	 340	 336
O         0.1740760504   -0.4350759994   10.2269229265       -1	 337	 410	 0	 0
O         2.1320760504   -1.3260759994   11.7399229265       -1	 337	 1155	 0	 0
O         2.0150760504    1.2219240006   11.1119229265       -1	 337	 369	 0	 0
Si       -5.4179239496   -3.9230759994    0.9349229265    -2	 161	 131	 342	 343
O        -4.5819239496   -4.7550759994   -0.1630770735    -1	 341	 400	 0	 0
O        -6.9869239496   -4.2350759994    0.7569229265    -1	 341	 344	 0	 0
Si       -8.5189239496   -3.8080759994    0.9929229265    -2	 345	 170	 350	 343
O        -9.4539239496   -4.5730759994   -0.0710770735    -1	 346	 344	 0	 0
Si      -10.7939239496   -5.4000759994   -0.4140770735    -2	 345	 347	 348	 349
O       -11.8539239496   -5.2240759994    0.7839229265    -1	 346	 1229	 0	 0
O       -10.4289239496   -6.9570759994   -0.5890770735    -1	 346	 1574	 0	 0
O       -11.4299239496   -4.8370759994   -1.7800770735    -1	 346	 1556	 0	 0
O        -8.9649239496   -4.2100759994    2.4859229265    -1	 351	 344	 0	 0
Si      -10.0249239496   -4.0350759994    3.6839229265    -2	 138	 350	 352	 168
O       -11.3649239496   -4.8610759994    3.3409229265    -1	 1229	 351	 0	 0
O        -2.1549239496   11.0789240006   -5.2940770735    -1	 105	 1146	 0	 0
O        -1.3529239496   12.8099240006   -3.4840770735    -1	 105	 1650	 0	 0
Si        5.2700760504   -1.2300759994    1.0629229265    -2	 209	 187	 356	 270
O         6.8300760504   -1.0680759994    1.4229229265    -1	 355	 357	 0	 0
Si        8.3600760504   -1.3450759994    1.0049229265    -2	 202	 356	 181	 358
O         9.3130760504   -1.1260759994    2.2829229265    -1	 357	 359	 0	 0
Si        9.9500760504   -1.6880759994    3.6489229265    -2	 179	 267	 358	 360
O        11.2890760504   -0.8610759994    3.9919229265    -1	 476	 359	 0	 0
O         3.8460760504   11.6889240006    5.1619229265    -1	 108	 1244	 0	 0
O         4.8480760504    9.5699240006    6.3539229265    -1	 1058	 108	 0	 0
O         4.7060760504    3.8649240006    8.5629229265    -1	 107	 364	 0	 0
Si        5.6410760504    4.6299240006    9.6269229265    -2	 363	 365	 366	 367
O         5.1950760504    4.2269240006   11.1199229265       -1	 993	 364	 0	 0
O         7.1730760504    4.2029240006    9.3909229265    -1	 364	 1006	 0	 0
O         5.4860760504    6.2189240006    9.4259229265    -1	 1873	 364	 0	 0
O         2.3060760504    3.2139240006    9.4179229265    -1	 369	 107	 0	 0
Si        1.8610760504    2.8109240006   10.9109229265       -2	 370	 371	 340	 368
O         2.7950760504    3.5759240006   11.9749229265       -1	 369	 993	 0	 0
O         0.3270760504    3.2389240006   11.1469229265       -1	 369	 392	 0	 0
Si        8.4360760504    4.3839240006   -6.3250770735    -23	 242	 227	 373	 87
O         8.8680760504    5.4049240006   -7.4920770735    -1	 372	 574	 0	 0
Si        5.3810760504    6.5729240006   -8.5880770735    -23	 377	 376	 375	 88
O         4.4280760504    6.3529240006   -9.8640770735    -1	 374	 1648	 0	 0
O         6.9100760504    6.2959240006   -9.0050770735    -1	 574	 374	 0	 0
O         5.2310760504    8.0839240006   -8.0550770735    -1	 452	 374	 0	 0
Si       -5.2699239496    1.2369240006   -1.0600770735    -22	 74	 379	 159	 71
O        -6.8299239496    1.0739240006   -1.4210770735    -1	 378	 380	 0	 0
Si       -8.3589239496    1.3509240006   -1.0030770735    -2	 169	 258	 379	 381
O        -9.3119239496    1.1319240006   -2.2800770735    -1	 380	 382	 0	 0
Si       -9.9489239496    1.6939240006   -3.6470770735    -2	 383	 244	 381	 255
O       -11.2879239496    0.8679240006   -3.9890770735    -1	 1633	 382	 0	 0
Si       -5.1929239496    6.9649240006   -8.3910770735    -23	 385	 386	 387	 77
O        -4.9119239496    8.4609240006   -7.8670770735    -1	 593	 384	 0	 0
O        -4.3059239496    6.6779240006   -9.7030770735    -1	 538	 384	 0	 0
O        -6.7529239496    6.8029240006   -8.7510770735    -1	 961	 384	 0	 0
Si       -8.3159239496    5.0049240006   -6.0140770735    -23	 389	 245	 78	 256
O        -8.7139239496    6.0589240006   -7.1670770735    -1	 961	 388	 0	 0
O        -3.3099239496    1.7419240006    8.1759229265    -1	 112	 408	 0	 0
O        -1.7109239496    3.3629240006    9.4929229265    -1	 112	 392	 0	 0
Si       -1.2409239496    2.9269240006   10.9689229265       -2	 393	 394	 371	 391
O        -2.0769239496    3.7579240006   12.0669229265       -1	 1196	 392	 0	 0
O        -1.5059239496    1.3529240006   11.1779229265       -1	 410	 392	 0	 0
O        -4.0849239496    4.1899240006    8.7249229265    -1	 396	 112	 0	 0
Si       -4.9209239496    5.0219240006    9.8229229265    -2	 395	 397	 398	 399
O        -6.4899239496    4.7099240006    9.6449229265    -1	 1387	 396	 0	 0
O        -4.6559239496    6.5959240006    9.6139229265    -1	 396	 744	 0	 0
O        -4.4509239496    4.5849240006   11.2989229265       -1	 396	 1196	 0	 0
Si       -3.3209239496   -5.6770759994   -0.5530770735    -2	 401	 146	 331	 342
O        -3.8069239496   -7.2030759994   -0.7120770735    -1	 402	 400	 0	 0
Si       -3.4419239496   -8.7610759994   -0.8870770735    -2	 153	 330	 403	 401
O        -4.7819239496   -9.5870759994   -1.2300770735    -1	 402	 404	 0	 0
Si       -5.7159239496  -10.3520759994   -2.2940770735    -2	 403	 405	 406	 327
O        -5.5619239496  -11.9420759994   -2.0930770735    -1	 546	 404	 0	 0
O        -7.2499239496   -9.9250759994   -2.0580770735    -1	 467	 404	 0	 0
O        -1.8849239496    0.0079240006    6.8029229265    -1	 113	 408	 0	 0
Si       -2.9449239496    0.1839240006    8.0009229265    -2	 409	 407	 390	 191
O        -2.3079239496   -0.3780759994    9.3679229265    -1	 410	 408	 0	 0
Si       -1.3549239496   -0.1580759994   10.6449229265       -2	 409	 394	 411	 338
O        -1.7869239496   -1.1800759994   11.8119229265       -1	 410	 1486	 0	 0
O       -22.1719239496    3.3699240006   -0.2170770735    -1	 1585	 1850	 0	 0
O       -12.2209239496  -12.9440759994    9.8089229265    -1	 1379	 1588	 0	 0
O        13.7610760504   -6.6710759994   17.3039229265       -1	 1426	 1096	 0	 0
Si      -16.9519239496    3.2039240006  -15.2950770735       -2	 1258	 2125	 1786	 1639
O         8.8050760504  -15.8220759994    5.8479229265    -1	 1609	 1864	 0	 0
O        -6.8339239496    7.2219240006  -13.9050770735       -1	 705	 1459	 0	 0
O        12.1050760504   14.3129240006   -5.4220770735    -1	 1424	 1000	 0	 0
O         8.3160760504  -16.1850759994    3.2899229265    -1	 1609	 1709	 0	 0
O        -0.1699239496    2.0769240006  -13.3220770735       -1	 966	 1799	 0	 0
O        -4.4149239496   17.4049240006    1.0209229265    -1	 638	 1927	 0	 0
O         2.5440760504   -6.2890759994   16.6059229265       -1	 1722	 1956	 0	 0
O         0.4800760504   14.6959240006   -3.5140770735    -1	 1650	 843	 0	 0
Si       10.4020760504    9.9019240006    4.8719229265    -2	 481	 1177	 982	 1640
Si        4.6970760504  -15.9040759994   -0.4940770735    -2	 746	 683	 581	 1118
O        -2.9279239496    0.4779240006   19.9469229265       -1	 1820	 1510	 0	 0
O         7.9370760504  -17.5300759994   -1.0850770735    -1	 1411	 832	 0	 0
Si       10.3260760504    4.1729240006   12.2029229265       -2	 1185	 778	 1751	 1817
O       -15.7179239496    6.3829240006  -13.8030770735       -1	 1884	 734	 0	 0
Si      -10.2649239496   11.9189240006   -6.5220770735    -2	 1795	 1159	 1974	 1839
O        -6.4119239496    2.6549240006   17.8949229265       -1	 1849	 1087	 0	 0
O        -0.6699239496   -8.5030759994  -19.1130770735       -1	 1779	 1894	 0	 0
O         4.2990760504  -16.0360759994    3.3649229265    -1	 1651	 1484	 0	 0
Si      -18.9329239496    1.7439240006   -0.8070770735    -2	 1132	 1501	 958	 951
O        -2.3849239496   -6.1070759994   16.6989229265       -1	 507	 1357	 0	 0
O         2.8520760504   -6.2000759994  -12.6140770735       -1	 1753	 945	 0	 0
O        12.0690760504    1.4929240006    4.8549229265    -1	 476	 1253	 0	 0
O        -3.7689239496   -5.9540759994  -12.4910770735       -1	 1570	 469	 0	 0
O       -15.0159239496   13.3169240006   -3.2300770735    -1	 1353	 447	 0	 0
Si      -12.3449239496    3.3149240006  -18.0440770735       -2	 1610	 1408	 1327	 1112
O       -18.7399239496    3.8859240006   -6.3510770735    -1	 1044	 1773	 0	 0
O         4.9580760504   13.7309240006    3.9309229265    -1	 1244	 765	 0	 0
O         0.6710760504    8.5089240006   19.1149229265       -1	 1203	 829	 0	 0
O         5.4460760504   14.4959240006    1.4679229265    -1	 1844	 765	 0	 0
O        -5.1549239496  -19.4280759994   -1.7200770735    -1	 1612	 789	 0	 0
O         1.6710760504    3.7349240006  -12.4370770735       -1	 1799	 1952	 0	 0
Si      -14.8659239496   11.8059240006   -3.7630770735    -2	 553	 906	 439	 1511
O        -6.3369239496   16.1669240006   -5.0170770735    -1	 1617	 1237	 0	 0
Si        2.6720760504  -14.7190759994    6.3289229265    -2	 1322	 1428	 1735	 912
Si      -14.8999239496    9.7309240006   -1.4440770735    -2	 1762	 1739	 906	 1899
Si        3.7430760504    8.8989240006   16.7739229265       -2	 1362	 1266	 893	 1471
Si        5.4950760504    9.6579240006   -8.2640770735    -2	 377	 1971	 931	 540
O        -8.3919239496   10.4629240006    4.0429229265    -1	 618	 1883	 0	 0
Si       18.8070760504   -4.8220759994    0.4849229265    -2	 1041	 1202	 1246	 1615
O        15.2220760504  -15.3210759994    4.9169229265    -1	 1729	 458	 0	 0
O       -15.6009239496    5.0199240006  -18.1870770735       -1	 1966	 1447	 0	 0
Si       -9.6049239496   -0.8190759994   19.9019229265       -2	 913	 774	 1598	 944
Si       16.3360760504  -15.2260759994    6.0749229265    -2	 674	 533	 2014	 455
O        -4.7949239496    7.0979240006  -12.2510770735       -1	 538	 1459	 0	 0
O        -0.2509239496    2.4959240006  -18.4760770735       -1	 842	 821	 0	 0
O       -15.7539239496   -6.4380759994   -3.5250770735    -1	 610	 1285	 0	 0
Si       10.4180760504   -0.4550759994   -8.1370770735    -2	 1667	 228	 1236	 1040
Si        5.2660760504   -7.5280759994   13.7289229265       -2	 723	 1836	 1270	 1532
Si      -17.0609239496  -10.8990759994    7.0319229265    -2	 2093	 1552	 1879	 1992
O       -24.0539239496   -1.9700759994    4.1119229265    -1	 1345	 773	 0	 0
O        15.8930760504   -3.0220759994   16.4949229265       -1	 595	 1512	 0	 0
Si       -8.8179239496  -10.2370759994   -2.2360770735    -2	 1346	 1205	 406	 1605
O        -1.5489239496   24.1859240006    1.1709229265    -1	 1515	 526	 0	 0
Si       -4.2549239496   -7.4800759994  -12.6500770735       -2	 1153	 635	 438	 512
Si        3.2900760504   -2.6910759994   15.5509229265       -2	 1482	 1875	 749	 872
O        15.8200760504  -11.5800759994    5.0429229265    -1	 919	 607	 0	 0
O        -2.0789239496  -13.3210759994    9.6199229265    -1	 1537	 1581	 0	 0
O       -22.4539239496   -0.3490759994    5.4289229265    -1	 773	 878	 0	 0
O       -10.7799239496   15.5649240006   -7.5540770735    -1	 1565	 656	 0	 0
O        15.0930760504   -7.5820759994   -4.0980770735    -1	 1268	 1700	 0	 0
Si       12.2240760504   -0.0960759994    5.0559229265    -2	 729	 437	 1982	 360
Si      -14.8229239496   15.4599240006   -8.7740770735    -2	 2041	 882	 606	 1199
O        17.9480760504    0.1409240006   -7.9100770735    -1	 563	 1638	 0	 0
O        18.1240760504    4.2789240006   -5.2110770735    -1	 1646	 991	 0	 0
O       -23.0519239496   -4.0900759994    5.3049229265    -1	 1345	 1843	 0	 0
O        11.6620760504    8.9799240006    4.4819229265    -1	 698	 424	 0	 0
O         1.5500760504  -24.1790759994   -1.1700770735    -1	 545	 1776	 0	 0
Si       -8.6649239496    1.2199240006  -16.8980770735       -2	 825	 1996	 1382	 527
O        -4.8029239496   -2.2670759994  -18.5910770735       -1	 1033	 1220	 0	 0
O         9.6550760504    9.4119240006    1.1409229265    -1	 1321	 692	 0	 0
O        10.3530760504    1.2349240006    7.9219229265    -1	 710	 984	 0	 0
O       -10.2759239496    4.4999240006  -15.2510770735       -1	 1275	 686	 0	 0
O        15.7190760504   -6.3760759994   13.8049229265       -1	 1037	 999	 0	 0
O         1.0620760504  -23.7590759994   -3.7170770735    -1	 545	 585	 0	 0
O         9.5310760504   10.3079240006   -7.2570770735    -1	 745	 800	 0	 0
O         2.5120760504   10.1669240006   19.9999229265       -1	 1203	 1214	 0	 0
O       -13.9909239496   -2.7250759994  -10.8910770735       -1	 1081	 594	 0	 0
O        -5.4969239496    0.1629240006  -22.8230770735       -1	 1175	 1048	 0	 0
Si      -18.8829239496   -0.9000759994    6.8479229265    -2	 602	 1092	 719	 1415
O        11.2420760504    5.7639240006  -11.7370770735       -1	 1593	 1741	 0	 0
Si        0.7830760504  -14.5090759994  -12.2000770735       -2	 874	 699	 551	 1939
O        -4.5029239496   18.0529240006   -5.0470770735    -1	 1617	 1193	 0	 0
O        22.8670760504   -5.7940759994    4.4509229265    -1	 1125	 1519	 0	 0
O        -9.5389239496  -18.8840759994    0.9279229265    -1	 1329	 1094	 0	 0
Si       15.3630760504   -2.8550759994   12.6529229265       -2	 1235	 1144	 519	 1272
O         2.7380760504  -16.4090759994   -9.7310770735    -1	 796	 557	 0	 0
O         1.2150760504  -12.3010759994  -18.3790770735       -1	 579	 1568	 0	 0
O        11.3550760504   -0.8850759994    9.1139229265    -1	 1488	 984	 0	 0
Si      -22.1059239496    2.4279240006   -6.0840770735    -2	 977	 2051	 879	 1696
O         9.0350760504    1.3639240006  -16.1450770735       -1	 1107	 1174	 0	 0
O         9.1270760504  -11.0150759994   12.0349229265       -1	 1337	 718	 0	 0
Si       -1.4319239496   -5.8870759994   17.9759229265       -2	 435	 1003	 2140	 1823
O         0.8240760504   19.9669240006    4.4539229265    -1	 696	 544	 0	 0
Si       12.2740760504   -2.7400759994   12.7109229265       -2	 1114	 803	 1039	 1235
O        -8.1409239496   19.5459240006   -0.5980770735    -1	 633	 584	 0	 0
Si      -22.1829239496   -3.3010759994    1.2459229265    -2	 1025	 621	 2054	 1101
O        -5.3689239496   -7.5760759994  -13.8080770735       -1	 1889	 469	 0	 0
O        20.4200760504   -5.6680759994    5.4029229265    -1	 1186	 1519	 0	 0
Si      -17.3769239496   -0.6740759994    4.1569229265    -2	 1921	 1135	 719	 575
Si       -8.9319239496  -13.3220759994   -2.5600770735    -2	 1945	 1443	 1605	 1240
O         2.6610760504  -22.1380759994   -2.4000770735    -1	 545	 1672	 0	 0
O         6.4100760504   -4.2840759994  -14.7960770735       -1	 1050	 947	 0	 0
O        -6.2589239496   14.1119240006    3.2339229265    -1	 1636	 1460	 0	 0
O        16.3170760504   -2.6350759994   13.9309229265       -1	 500	 1512	 0	 0
O       -11.4949239496   13.1859240006   -3.2960770735    -1	 1962	 1868	 0	 0
O        15.2980760504   -9.5920759994   -2.4130770735    -1	 1834	 1268	 0	 0
O         0.9770760504   23.6409240006    5.3739229265    -1	 1134	 990	 0	 0
O        15.9700760504    2.7069240006    9.1649229265    -1	 1765	 743	 0	 0
Si      -14.8279239496    9.1619240006    3.8919229265    -2	 1642	 1661	 750	 2184
Si       14.9810760504    2.3019240006  -18.5510770735       -2	 2070	 613	 1182	 1047
Si       -2.1749239496   23.6699240006    2.5619229265    -2	 841	 899	 2036	 468
O        -7.0969239496    1.5319240006  -16.7200770735       -1	 483	 998	 0	 0
Si      -11.9249239496    6.5319240006   -1.8250770735    -2	 257	 252	 1917	 1464
O        18.7290760504    2.4959240006   -7.0460770735    -1	 563	 991	 0	 0
O         2.9560760504   23.6159240006    3.6449229265    -1	 1061	 1134	 0	 0
O         2.2770760504    1.9519240006  -14.2740770735       -1	 1147	 1799	 0	 0
O         7.4800760504   19.3339240006   -4.3510770735    -1	 1708	 655	 0	 0
O        15.7110760504  -15.7410759994    7.4639229265    -1	 458	 1452	 0	 0
O        -4.3749239496    9.1279240006    8.9799229265    -1	 706	 744	 0	 0
O       -15.9689239496   -2.7010759994   -9.1620770735    -1	 594	 604	 0	 0
O        -0.8199239496  -18.3250759994   -7.5490770735    -1	 1566	 1718	 0	 0
Si      -17.1819239496  -13.9820759994    6.6969229265    -2	 1210	 1830	 2090	 1552
Si       -3.6809239496    7.1929240006  -11.0930770735       -2	 1602	 386	 459	 766
O        16.4370760504   10.3899240006   -5.6400770735    -1	 1273	 955	 0	 0
O         4.6590760504   10.4899240006   -7.1660770735    -1	 452	 1807	 0	 0
Si       12.4610760504   10.7919240006   -4.2700770735    -2	 726	 1766	 1777	 1590
O       -12.0279239496   -9.7640759994    3.1059229265    -1	 1490	 907	 0	 0
O        22.3380760504    1.7179240006   -1.0430770735    -1	 1257	 1675	 0	 0
Si       -0.7049239496   20.2439240006    4.8709229265    -2	 1631	 508	 559	 708
Si        2.1750760504  -23.6640759994   -2.5590770735    -2	 489	 482	 516	 2002
Si       -5.8429239496  -13.4370759994   -2.6180770735    -2	 850	 1443	 405	 1053
O        17.3180760504   -4.7550759994   15.1219229265       -1	 1037	 1512	 0	 0
O       -13.9129239496   -4.7800759994   -2.6410770735    -1	 610	 1556	 0	 0
Si      -10.4779239496  -15.6240759994    2.4609229265    -2	 629	 1166	 1647	 1208
Si      -10.4009239496   -9.8960759994   -4.8700770735    -2	 1346	 1643	 682	 1767
O         1.7360760504  -14.2890759994  -10.9220770735       -1	 557	 496	 0	 0
O       -17.3939239496   -0.9670759994   -7.7890770735    -1	 604	 853	 0	 0
O       -13.3359239496   11.5289240006   -4.1810770735    -1	 1868	 447	 0	 0
O         5.6510760504   11.2999240006    8.1639229265    -1	 1058	 1085	 0	 0
Si       -2.1579239496   -9.2340759994  -14.1380770735       -2	 1153	 1746	 768	 680
O         0.9450760504  -22.3960759994    0.6669229265    -1	 1271	 1776	 0	 0
Si        2.3730760504  -14.8510759994   -9.5560770735    -2	 1314	 652	 501	 551
O        13.3370760504  -11.5230759994    4.1829229265    -1	 1297	 919	 0	 0
O        -0.8559239496   21.7549240006    5.4039229265    -1	 990	 544	 0	 0
Si       22.0990760504    3.8769240006   -6.5790770735    -2	 2025	 1715	 1470	 1840
O         4.9250760504   15.2979240006   -0.9760770735    -1	 1844	 1304	 0	 0
O       -15.7939239496    0.6539240006   -6.4720770735    -1	 653	 853	 0	 0
Si       18.8840760504    0.9069240006   -6.8450770735    -2	 529	 1863	 478	 926
Si        2.1590760504    9.2409240006   14.1399229265       -2	 1266	 1907	 1292	 570
O       -15.5129239496    4.3719240006  -12.1180770735       -1	 1163	 1884	 0	 0
O         5.3480760504   15.6849240006   -3.5420770735    -1	 1758	 1304	 0	 0
Si       -4.9969239496   -0.7070759994   17.1539229265       -2	 1929	 809	 716	 1713
Si       -7.7429239496   19.6789240006   -4.4570770735    -2	 986	 1483	 980	 2038
Si       11.8540760504   -5.9560759994   -3.5080770735    -2	 1626	 186	 954	 1412
O         2.9950760504    8.4089240006   13.0419229265       -1	 1402	 564	 0	 0
Si      -10.2969239496    3.5449240006    8.4739229265    -2	 1121	 1954	 1111	 1664
Si        8.0230760504   -5.1310759994   -9.8780770735    -2	 1323	 1596	 279	 1928
O         4.4520760504   -3.3930759994  -16.3090770735       -1	 947	 1392	 0	 0
Si        8.4700760504    6.4579240006   -8.6450770735    -2	 1771	 1316	 373	 376
O       -18.0129239496   -0.1120759994    2.7909229265    -1	 514	 1572	 0	 0
O        -4.4509239496    3.3989240006   16.3109229265       -1	 1571	 1087	 0	 0
O        -7.3309239496   -1.7220759994  -22.7930770735       -1	 687	 1175	 0	 0
Si       17.1060760504    8.2599240006    0.6359229265    -2	 1809	 2026	 1179	 1448
Si        0.7450760504  -11.8650759994  -19.8550770735       -2	 1038	 502	 1319	 2080
O       -11.5319239496   -0.8190759994   11.9929229265       -1	 1621	 623	 0	 0
O         4.4160760504  -17.3990759994   -1.0190770735    -1	 425	 1119	 0	 0
O        15.3350760504    3.2279240006  -12.6910770735       -1	 1378	 856	 0	 0
O        15.0170760504  -13.3110759994    3.2329229265    -1	 1729	 919	 0	 0
Si       -7.6709239496   19.1099240006    0.8779229265    -2	 1794	 510	 2110	 1079
Si        0.5920760504  -23.3220759994   -5.1930770735    -2	 489	 1082	 1493	 2007
O        15.7870760504  -10.0130759994    0.1339229265    -1	 1834	 738	 0	 0
Si      -10.7169239496    0.3289240006   -7.7450770735    -2	 1569	 1508	 669	 246
O        11.0130760504  -11.4220759994   10.2559229265       -1	 971	 718	 0	 0
O        16.3600760504    4.6609240006    1.6909229265    -1	 1916	 1276	 0	 0
O        -8.7819239496    8.5089240006   11.5149229265       -1	 1893	 1479	 0	 0
Si       -4.9259239496   -1.2760759994   22.4889229265       -2	 1372	 1901	 2143	 1984
O        -0.9439239496   22.4019240006   -0.6650770735    -1	 1385	 1515	 0	 0
Si       -5.0669239496   10.0499240006   -8.0680770735    -2	 385	 1524	 1549	 1204
Si      -15.5229239496   -2.2980759994  -10.6550770735       -2	 1586	 492	 2134	 535
Si       15.4470760504   -3.4240759994   17.9879229265       -2	 2170	 466	 1603	 1309
Si        3.9120760504    9.9989240006  -10.8970770735       -2	 658	 1971	 1599	 1832
O        -5.0249239496  -10.0880759994    9.7419229265    -1	 1657	 1368	 0	 0
O        -1.2139239496   12.3079240006   18.3809229265       -1	 1961	 923	 0	 0
O        -9.2479239496  -16.8920759994   -0.7660770735    -1	 1329	 1343	 0	 0
O       -11.2799239496    9.4499240006    2.3409229265    -1	 1089	 862	 0	 0
O         4.6950760504   -1.8880759994   21.0159229265       -1	 691	 751	 0	 0
O       -20.4169239496   -0.4730759994    7.0839229265    -1	 878	 494	 0	 0
O        15.8640760504   -4.2840759994   -7.1970770735    -1	 1591	 1944	 0	 0
Si      -17.0289239496   -2.5250759994   -7.9640770735    -2	 2124	 1336	 535	 552
O         1.6600760504  -20.0180759994   -3.5910770735    -1	 1366	 1672	 0	 0
O       -15.7089239496   15.7479240006   -7.4630770735    -1	 1948	 477	 0	 0
Si       16.4560760504  -12.1420759994    6.4089229265    -2	 674	 1164	 471	 2016
O        22.9770760504   -1.6330759994    2.0299229265    -1	 1425	 755	 0	 0
Si       10.2490760504   -1.5550759994   19.5339229265       -2	 1989	 1732	 1813	 1303
Si      -15.4729239496   -4.9420759994   -3.0010770735    -2	 548	 461	 1790	 1704
O         1.1380760504  -18.0300759994  -11.0480770735       -1	 1113	 796	 0	 0
Si       11.8880760504   -3.8820759994   -5.8280770735    -2	 1457	 1171	 1412	 943
O        15.2460760504    3.8749240006  -18.7600770735       -1	 1122	 525	 0	 0
O        13.1830760504  -15.1970759994    3.2629229265    -1	 1729	 875	 0	 0
O         9.9630760504   19.2769240006   -3.4900770735    -1	 1708	 1781	 0	 0
O        -2.1539239496   -1.9710759994   19.3979229265       -1	 1142	 1510	 0	 0
Si        4.1790760504    1.7579240006   19.9829229265       -2	 1523	 1920	 2190	 1688
Si       -7.9459239496   10.8659240006    2.5499229265    -2	 934	 453	 286	 976
[...]
 1901      O      -4.6439239496     0.2189240006    23.0139229265
 1902      O     -16.1609239496     1.0489240006    -3.8980770735
 1903      O     -12.1049239496   -14.3070759994     5.4249229265
 1904      O      -9.2109239496    -2.8860759994   -16.0550770735
 1905      O      -9.0339239496    -1.3570759994    16.1469229265
 1906      O       5.1190760504    -1.5010759994    18.4509229265
 1907      O       0.5900760504     8.9289240006    13.9619229265
 1908      Si     -2.3109239496   -20.6920759994     0.5239229265
 1909      Si      8.1690760504   -10.1590759994     8.0119229265
 1910      Si     -3.7899239496    -6.9090759994    11.2339229265
 1911      O      22.3780760504    -5.3730759994     1.9039229265
 1912      Si    -16.5639239496    -1.9540759994    15.9199229265
 1913      Si      7.9010760504    -1.9170759994   -22.8680770735
 1914      O       9.2880760504     8.6209240006     8.7269229265
 1915      O       6.8290760504     6.7149240006   -14.1590770735
 1916      Si     15.4740760504     4.9489240006     3.0029229265
 1917      O     -13.4939239496     6.2189240006    -2.0030770735
 1918      O      -9.8939239496     6.4679240006    12.7469229265
 1919      Si     -4.0149239496   -23.4340759994    -2.4440770735
 1920      O       3.6930760504     0.2319240006    19.8239229265
 1921      O     -17.0119239496    -2.2310759994     3.9819229265
 1922      O     -22.9749239496     1.6389240006    -2.0260770735
 1923      O      10.4680760504     8.2119240006   -11.1870770735
 1924      Si     11.9640760504     1.8469240006   -13.1580770735
 1925      Si     -4.2869239496   -15.8540759994     2.3459229265
 1926      O      12.0810760504    -4.8830759994    18.2549229265
 1927      Si     -4.5699239496    18.9949240006     0.8199229265
 1928      O       8.4690760504    -4.7280759994   -11.3710770735
 1929      O      -4.7329239496     0.8669240006    16.9449229265
 1930      O      -7.3269239496    -7.8700759994   -10.3090770735
 1931      O     -22.3779239496     5.3799240006    -1.9010770735
 1932      O       4.1330760504   -10.8090759994     7.0059229265
 1933      Si      4.8000760504    -1.8020759994   -22.8110770735
 1934      O      -9.2339239496    -6.1890759994    15.0799229265
 1935      O       0.7440760504    12.6029240006    14.8819229265
 1936      O      -7.3299239496    -9.5060759994    -7.2110770735
 1937      O      -3.3019239496   -18.2680759994    -8.4080770735
 1938      O      -2.7369239496    16.4149240006     9.7329229265
 1939      O       1.2140760504   -13.4870759994   -13.3670770735
 1940      O      -4.3809239496   -21.8760759994    -2.2690770735
 1941      O      24.0550760504     1.9759240006    -4.1100770735
 1942      O      -9.2869239496    -8.6150759994    -8.7240770735
 1943      O       2.5000760504    16.5429240006     6.6009229265
 1944      Si     14.9770760504    -3.9960759994    -5.8850770735
 1945      O      -9.8849239496   -13.5420759994    -3.8370770735
 1946      Si      9.2560760504   -19.4450759994     1.7579229265
 1947      O       9.3650760504    15.5359240006    -3.6160770735
 1948      Si    -16.3349239496    15.2319240006    -6.0730770735
 1949      O      -1.6249239496    18.4569240006     8.5019229265
 1950      Si    -15.3959239496     0.7859240006   -10.3320770735
 1951      O      -1.9239239496    15.2159240006    -2.5950770735
 1952      Si      1.5170760504     5.3239240006   -12.6380770735
 1953      O     -15.3739239496     3.8699240006     9.7459229265
 1954      O     -10.9329239496     4.1069240006     7.1079229265
 1955      Si     19.0050760504    -2.3060759994     6.1439229265
 1956      Si      3.1690760504    -5.7740759994    15.2169229265
 1957      Si    -15.4389239496    -2.8680759994    -5.3200770735
 1958      O      -8.8579239496     2.7809240006    18.8459229265
 1959      Si    -11.8529239496     5.9629240006     3.5099229265
 1960      O       9.4660760504    10.3319240006   -12.3780770735
 1961      Si     -0.7439239496    11.8709240006    19.8569229265
 1962      Si    -11.6499239496    14.7759240006    -3.4970770735
 1963      O      -0.9009239496   -17.9060759994   -12.7020770735
 1964      O       1.5830760504     4.3819240006   -18.5060770735
 1965      O       5.1560760504    19.4339240006     1.7219229265
 1966      Si    -15.3199239496     6.5149240006   -17.6620770735
 1967      Si     -0.8659239496    15.0839240006     6.8669229265
 1968      O     -15.2569239496     2.5069240006     5.3629229265
 1969      O      -8.8149239496    10.0769240006     6.6079229265
 1970      Si    -15.4779239496   -11.2400759994     9.6649229265
 1971      O       5.0250760504    10.0949240006    -9.7400770735
 1972      O      -8.6379239496    10.6019240006    -9.4860770735
 1973      Si    -10.4939239496    -5.2670759994    15.4699229265
 1974      O     -10.8899239496    11.4039240006    -5.1330770735
 1975      Si     21.9090760504    -4.9370759994     0.4279229265
 1976      O      -1.8769239496     8.5909240006    13.1339229265
 1977      O      -2.4499239496    -6.0830759994    11.5769229265
 1978      Si      7.9470760504   -10.8590759994    -2.5480770735
 1979      O      -9.2109239496    -4.0720759994   -11.0430770735
 1980      O       4.8590760504    15.3219240006    -6.0990770735
 1981      Si      3.5620760504   -10.2700759994    10.7609229265
 1982      O      11.7780760504    -0.4990759994     6.5489229265
 1983      O      -1.0209239496    16.6739240006     6.6659229265
 1984      O      -6.4859239496    -1.4380759994    22.1289229265
 1985      O       3.9640760504    -4.1590759994   -13.8450770735
 1986      O       2.9290760504    -0.4710759994   -19.9450770735
 1987      Si     12.5030760504    14.4459240006    -9.2820770735
 1988      O     -12.1569239496    -0.8390759994   -10.9220770735
 1989      O       9.1360760504    -1.6500759994    18.3759229265
 1990      O       8.9690760504     1.3869240006   -21.2660770735
 1991      O      13.8330760504     5.2059240006    -2.5110770735
 1992      O     -15.9469239496   -10.8030759994     8.1889229265
 1993      O      -8.2169239496    13.8179240006     6.7329229265
 1994      Si     -5.4229239496   -10.2210759994    13.6009229265
 1995      Si     -9.3749239496    16.3679240006    -2.0900770735
 1996      O      -9.5009239496     2.0519240006   -15.8000770735
 1997      O      -5.4449239496   -13.3040759994    -6.4770770735
 1998      O      -8.8119239496     7.2469240006   -12.1760770735
 1999      Si     -0.7389239496    18.1689240006     7.1909229265
 2000      Si     15.4020760504     5.5179240006    -2.3320770735
 2001      O      -9.1589239496   -17.5400759994     5.3029229265
 2002      H       3.1880760504   -24.4050759994    -2.8730770735
 2003      H       0.9830760504   -24.7370759994     1.0679229265
 2004      H      -2.7719239496   -24.5980759994     1.1369229265
 2005      H      -5.0909239496   -24.0980759994    -2.7190770735
 2006      H      -3.2609239496   -23.8220759994    -5.9910770735
 2007      H       1.2630760504   -23.9900759994    -6.0740770735
 2008      H       4.3080760504   -20.3790759994     5.4549229265
 2009      H       8.0630760504   -20.5180759994     5.3849229265
 2010      H       8.3430760504   -19.7710759994    -1.7570770735
 2011      H      10.2680760504   -20.1860759994     1.4439229265
 2012      H      11.3880760504   -16.1600759994     9.7719229265
 2013      H      15.1430760504   -16.2990759994     9.7019229265
 2014      H      17.3480760504   -15.9670759994     5.7619229265
 2015      H      15.4230760504   -15.5520759994     2.5599229265
 2016      H      17.5320760504   -11.4790759994     6.6839229265
 2017      H      17.4250760504   -10.2380759994    -1.5690770735
 2018      H      15.6400760504    -7.3540759994    18.5899229265
 2019      H      17.8450760504    -7.0220759994    14.6499229265
 2020      H      22.3000760504    -6.3520759994     6.6879229265
 2021      H      24.5050760504    -6.0200759994     2.7479229265
 2022      H      24.6890760504    -1.5310759994     3.6709229265
 2023      H      24.5810760504    -0.2910759994    -4.5830770735
 2024      H      24.7650760504     4.1979240006    -3.6600770735
 2025      H      22.4460760504     4.6979240006    -7.5170770735
 2026      H      18.1820760504     8.9239240006     0.9109229265
 2027      H      18.0750760504    10.1639240006    -7.3430770735
 2028      H      18.2580760504    14.6519240006    -6.4200770735
 2029      H      15.9390760504    15.1519240006   -10.2770770735
 2030      H      11.6750760504    19.3779240006    -1.8490770735
 2031      H       9.3560760504    19.8779240006    -5.7060770735
 2032      H       5.0920760504    24.1039240006     2.7219229265
 2033      H       2.7730760504    24.6039240006    -1.1350770735
 2034      H       5.6010760504    20.0169240006    -5.6360770735
 2035      H      -0.9819239496    24.7429240006    -1.0660770735
 2036      H      -3.1869239496    24.4109240006     2.8749229265
 2037      H      -4.3069239496    20.3849240006    -5.4520770735
 2038      H      -8.0619239496    20.5239240006    -5.3830770735
 2039      H     -10.2669239496    20.1919240006    -1.4420770735
 2040      H     -11.3869239496    16.1659240006    -9.7700770735
 2041      H     -15.1429239496    16.3049240006    -9.7000770735
 2042      H     -17.3479239496    15.9729240006    -5.7590770735
 2043      H     -17.5309239496    11.4849240006    -6.6820770735
 2044      H     -17.4239239496    10.2449240006     1.5709229265
 2045      H     -15.6389239496     7.3609240006   -18.5880770735
 2046      H     -17.8439239496     7.0289240006   -14.6470770735
 2047      H     -18.5429239496     6.2189240006    -6.7560770735
 2048      H     -22.2989239496     6.3579240006    -6.6860770735
 2049      H     -24.5039239496     6.0259240006    -2.7460770735
 2050      H     -24.6879239496     1.5369240006    -3.6680770735
 2051      H     -22.8569239496     1.8129240006    -6.9400770735
 2052      H     -24.5809239496     0.2969240006     4.5849229265
 2053      H     -24.7639239496    -4.1910759994     3.6619229265
 2054      H     -22.9339239496    -3.9160759994     0.3909229265
 2055      H     -22.4459239496    -4.6910759994     7.5189229265
 2056      H     -15.7009239496    11.7609240006    -9.9530770735
 2057      H     -10.3439239496    14.4639240006     5.8889229265
 2058      H      -3.2639239496    18.6829240006    10.2059229265
 2059      H      -1.4789239496    15.7989240006    -9.9530770735
 2060      H       2.2760760504    15.6589240006   -10.0230770735
 2061      H      12.1840760504    15.2919240006   -10.2070770735
 2062      H      16.1500760504    10.5789240006   -10.5440770735
 2063      H      17.7610760504     5.7069240006   -15.3080770735
 2064      H      15.4430760504     6.2069240006   -19.1650770735
 2065      H      22.6560760504     0.1239240006    -7.7840770735
 2066      H      22.5800760504    -5.6050759994    -0.4540770735
 2067      H      17.5010760504    -4.5100759994    -8.9000770735
 2068      H      15.5760760504    -4.0950759994   -12.1020770735
 2069      H      17.5780760504     1.2189240006   -16.2310770735
 2070      H      15.6530760504     1.6339240006   -19.4320770735
 2071      H      11.6870760504     6.3469240006   -19.0950770735
 2072      H       8.8590760504    10.9329240006   -14.5940770735
 2073      H      11.5990760504    13.6489240006     5.4809229265
 2074      H       5.1040760504    11.0729240006   -14.5240770735
 2075      H       8.3620760504     1.9889240006   -23.4820770735
 2076      H      10.4980760504    -3.0000759994   -20.5480770735
 2077      H       8.5730760504    -2.5850759994   -23.7500770735
 2078      H      10.4210760504    -8.7290759994   -13.2170770735
 2079      H       8.4960760504    -8.3140759994   -16.4190770735
 2080      H       1.4160760504   -12.5330759994   -20.7360770735
 2081      H       3.3410760504   -12.9480759994   -17.5340770735
 2082      H       1.3400760504   -18.2610759994   -13.4050770735
 2083      H       3.2650760504   -18.6760759994   -10.2040770735
 2084      H       8.4200760504   -14.0420759994    -9.0880770735
 2085      H      10.3450760504   -14.4570759994    -5.8860770735
 2086      H      -5.5999239496   -20.0110759994     5.6389229265
 2087      H      -9.3559239496   -19.8720759994     5.7079229265
 2088      H     -11.6739239496   -19.3720759994     1.8509229265
 2089      H     -15.9389239496   -15.1460759994    10.2789229265
 2090      H     -18.2579239496   -14.6460759994     6.4219229265
 2091      H     -12.1829239496   -15.2850759994    10.2089229265
 2092      H     -16.4269239496   -14.3700759994     3.1509229265
 2093      H     -18.0739239496   -10.1570759994     7.3449229265
 2094      H     -16.1489239496   -10.5720759994    10.5469229265
 2095      H     -11.6859239496    -6.3400759994    19.0969229265
 2096      H     -17.7609239496    -5.7010759994    15.3099229265
 2097      H     -15.4419239496    -6.2010759994    19.1669229265
 2098      H     -17.5769239496    -1.2130759994    16.2329229265
 2099      H     -15.6519239496    -1.6280759994    19.4349229265
 2100      H     -10.4969239496     3.0059240006    20.5499229265
 2101      H      -8.5719239496     2.5909240006    23.7519229265
 2102      H     -17.4999239496     4.5159240006     8.9019229265
 2103      H     -15.5759239496     4.1009240006    12.1039229265
 2104      H     -10.4199239496     8.7349240006    13.2189229265
 2105      H      -8.4959239496     8.3199240006    16.4209229265
 2106      H      -3.3399239496    12.9539240006    17.5369229265
 2107      H      -1.4149239496    12.5389240006    20.7379229265
 2108      H      -8.4189239496    14.0489240006     9.0899229265
 2109      H      -1.3389239496    18.2679240006    13.4069229265
 2110      H      -8.3429239496    19.7769240006     1.7589229265
 2111      H      -1.2629239496    23.9959240006     6.0769229265
 2112      H      -4.8039239496    11.4399240006   -14.3400770735
 2113      H       1.7790760504     6.7139240006   -18.9110770735
 2114      H       4.6070760504     2.1279240006   -23.4120770735
 2115      H     -11.8839239496     7.2209240006   -18.6570770735
 2116      H      -5.3009239496     2.4949240006   -23.2280770735
 2117      H      -9.0559239496     2.6349240006   -23.1590770735
 2118      H      -9.6139239496    -1.9100759994   -23.4120770735
 2119      H     -11.4449239496    -2.1860759994   -20.1410770735
 2120      H      -3.1079239496   -12.3650759994   -20.6520770735
 2121      H      -4.9379239496   -12.6400759994   -17.3810770735
 2122      H     -11.5209239496    -7.9140759994   -12.8100770735
 2123      H      -9.6909239496    -7.6390759994   -16.0810770735
 2124      H     -18.1049239496    -3.1890759994    -8.2390770735
 2125      H     -18.0279239496     2.5399240006   -15.5700770735
 2126      H      -2.5489239496    -7.8200759994   -20.3990770735
 2127      H     -16.1979239496     2.8159240006   -18.8410770735
 2128      H      -3.1839239496   -18.0930759994   -13.3210770735
 2129      H      -5.0149239496   -18.3690759994   -10.0500770735
 2130      H     -11.5979239496   -13.6430759994    -5.4790770735
 2131      H      -9.7669239496   -13.3680759994    -8.7500770735
 2132      H     -18.1809239496    -8.9170759994    -0.9090770735
 2133      H     -16.3499239496    -8.6420759994    -4.1800770735
 2134      H     -16.2739239496    -2.9130759994   -11.5110770735
 2135      H      -9.8439239496   -19.0960759994    -1.4200770735
 2136      H      -2.2749239496   -15.6530759994    10.0249229265
 2137      H       1.4800760504   -15.7920759994     9.9559229265
 2138      H      -8.8589239496   -10.9270759994    14.5959229265
 2139      H      -5.1029239496   -11.0660759994    14.5269229265
 2140      H      -1.7789239496    -6.7080759994    18.9129229265
 2141      H       1.9770760504    -6.8470759994    18.8439229265
 2142      H      -8.3619239496    -1.9820759994    23.4839229265
 2143      H      -4.6059239496    -2.1220759994    23.4149229265
 2144      H       5.3020760504    -2.4890759994    23.2309229265
 2145      H       9.0570760504    -2.6280759994    23.1609229265
 2146      H       9.6150760504     1.9159240006    23.4139229265
 2147      H      11.4460760504     2.1919240006    20.1429229265
 2148      H      -1.2049239496     7.9649240006    20.4709229265
 2149      H       2.5500760504     7.8259240006    20.4009229265
 2150      H       3.1090760504    12.3709240006    20.6539229265
 2151      H       4.9390760504    12.6469240006    17.3829229265
 2152      H       3.1850760504    18.0999240006    13.3239229265
 2153      H       5.0150760504    18.3749240006    10.0519229265
 2154      H       3.2610760504    23.8279240006     5.9929229265
 2155      H      -1.9759239496     6.8539240006   -18.8420770735
 2156      H       1.2060760504    -7.9590759994   -20.4680770735
 2157      H       2.2180760504    -2.6930759994   -20.3950770735
 2158      H       4.0490760504    -2.4170759994   -23.6660770735
 2159      H      -5.0899239496    -2.0780759994   -23.4960770735
 2160      H      15.9310760504     5.4319240006   -12.0370770735
 2161      H      16.4280760504    14.3769240006    -3.1490770735
 2162      H       9.8450760504    19.1029240006     1.4219229265
 2163      H       9.7680760504    13.3739240006     8.7529229265
 2164      H      11.5220760504     7.9209240006    12.8119229265
 2165      H       9.6920760504     7.6449240006    16.0839229265
 2166      H       5.0910760504     2.0839240006    23.4979229265
 2167      H      -4.0479239496     2.4229240006    23.6679229265
 2168      H      -2.2179239496     2.6989240006    20.3969229265
 2169      H      11.8850760504    -7.2150759994    18.6599229265
 2170      H      16.1980760504    -2.8090759994    18.8439229265
 2171      H      18.0290760504    -2.5340759994    15.5719229265
 2172      H      16.2750760504     2.9189240006    11.5129229265
 2173      H      18.5440760504    -6.2120759994     6.7579229265
 2174      H      18.1050760504     3.1949240006     8.2419229265
 2175      H      22.8580760504    -1.8070759994     6.9419229265
 2176      H      22.9340760504     3.9219240006    -0.3890770735
 2177      H      15.9200760504    -6.6070759994    11.4479229265
 2178      H      15.7010760504   -11.7540759994     9.9559229265
 2179      H       8.5600760504   -11.5730759994    14.2729229265
 2180      H       4.8050760504   -11.4340759994    14.3429229265
 2181      H      15.5000760504    -9.8230759994    -4.7710770735
 2182      H     -22.6559239496    -0.1180759994     7.7869229265
 2183      H     -22.5789239496     5.6109240006     0.4559229265
 2184      H     -15.4989239496     9.8299240006     4.7729229265
 2185      H     -15.4229239496    15.5579240006    -2.5580770735
 2186      H     -15.9199239496     6.6139240006   -11.4460770735
 2187      H      -3.1659239496    -2.4930759994   -20.2940770735
 2188      H     -18.6899239496    -4.8310759994     7.4489229265
 2189      H     -15.9299239496    -5.4260759994    12.0389229265
 2190      H       3.1660760504     2.4989240006    20.2969229265
 2191      H      16.3510760504     8.6479240006     4.1819229265
 2192      H      18.6910760504     4.8369240006    -7.4470770735
 2193      H      -8.5589239496    11.5799240006   -14.2710770735
 ----------------------------------------------------------------
 Nuclear Repulsion Energy =     5895462.37175266 hartrees
 There are      300 alpha and      300 beta electrons
 Total job time:  64439.88s(wall), 2339247.72s(cpu) 
 Fri Jun 25 03:18:23 2021

        *************************************************************
        *                                                           *
        *  Thank you very much for using Q-Chem.  Have a nice day.  *
        *                                                           *
        *************************************************************


