
Running Job 1 of 1 samp_893.qcin
qchem samp_893.qcin_4665.0 /scr/lance/184063/893/qchem4665/ 0
/home/mgcf/software-ws/qchem/qchem_540/exe/qcprog.exe_s samp_893.qcin_4665.0 /scr/lance/184063/893/qchem4665/
                  Welcome to Q-Chem
     A Quantum Leap Into The Future Of Chemistry


 Q-Chem 5.4, Q-Chem, Inc., Pleasanton, CA (2021)

 E. Epifanovsky,  A. T. B. Gilbert,  Xintian Feng,  Joonho Lee,  Yuezhi Mao,  
 N. Mardirossian,  P. Pokhilko,  A. White,  M. Wormit,  M. P. Coons,  
 A. L. Dempwolff,  Zhengting Gan,  D. Hait,  P. R. Horn,  L. D. Jacobson,  
 I. Kaliman,  J. Kussmann,  A. W. Lange,  Ka Un Lao,  D. S. Levine,  Jie Liu,  
 S. C. McKenzie,  A. F. Morrison,  K. Nanda,  F. Plasser,  D. R. Rehn,  
 M. L. Vidal,  Zhi-Qiang You,  Ying Zhu,  B. Alam,  B. Albrecht,  
 A. Aldossary,  E. Alguire,  J. H. Andersen,  D. Barton,  K. Begam,  A. Behn,  
 Y. A. Bernard,  E. J. Berquist,  H. Burton,  A. Carreras,  K. Carter-Fenk,  
 R. Chakraborty,  A. D. Chien,  K. D. Closser,  V. Cofer-Shabica,  
 S. Dasgupta,  Jia Deng,  M. de Wergifosse,  M. Diedenhofen,  Hainam Do,  
 S. Ehlert,  Po-Tung Fang,  S. Fatehi,  Qingguo Feng,  J. Gayvert,  
 Qinghui Ge,  G. Gidofalvi,  M. Goldey,  J. Gomes,  C. Gonzalez-Espinoza,  
 S. Gulania,  A. Gunina,  M. W. D. Hanson-Heine,  P. H. P. Harbach,  
 A. W. Hauser,  M. F. Herbst,  M. Hernandez Vera,  M. Hodecker,  
 Z. C. Holden,  S. Houck,  Xunkun Huang,  Kerwin Hui,  B. C. Huynh,  
 M. Ivanov,  Hyunjun Ji,  Hanjie Jiang,  B. Kaduk,  S. Kaehler,  
 K. Khistyaev,  Jaehoon Kim,  P. Klunzinger,  Z. Koczor-Benda,  
 Joong Hoon Koh,  D. Kosenkov,  L. Koulias,  T. Kowalczyk,  C. M. Krauter,  
 K. Kue,  A. Kunitsa,  T. Kus,  A. Landau,  K. V. Lawler,  D. Lefrancois,  
 S. Lehtola,  Rain Li,  Yi-Pei Li,  Jiashu Liang,  M. Liebenthal,  
 Hung-Hsuan Lin,  You-Sheng Lin,  Fenglai Liu,  Kuan-Yu Liu,  
 M. Loipersberger,  A. Luenser,  A. Manjanath,  P. Manohar,  E. Mansoor,  
 S. F. Manzer,  Shan-Ping Mao,  A. V. Marenich,  T. Markovich,  S. Mason,  
 S. A. Maurer,  P. F. McLaughlin,  M. F. S. J. Menger,  J.-M. Mewes,  
 S. A. Mewes,  P. Morgante,  J. W. Mullinax,  T. S. Nguyen-Beck,  
 K. J. Oosterbaan,  G. Paran,  Alexander C. Paul,  Suranjan K. Paul,  
 F. Pavosevic,  Zheng Pei,  S. Prager,  E. I. Proynov,  E. Ramos,  B. Rana,  
 A. E. Rask,  A. Rettig,  R. M. Richard,  F. Rob,  E. Rossomme,  T. Scheele,  
 M. Scheurer,  M. Schneider,  N. Sergueev,  S. M. Sharada,  W. Skomorowski,  
 D. W. Small,  C. J. Stein,  Yu-Chuan Su,  E. J. Sundstrom,  Zhen Tao,  
 J. Thirman,  T. Tsuchimochi,  N. M. Tubman,  S. P. Veccham,  O. Vydrov,  
 J. Wenzel,  J. Witte,  A. Yamada,  Kun Yao,  S. Yeganeh,  S. R. Yost,  
 A. Zech,  Igor Ying Zhang,  Xing Zhang,  Yu Zhang,  D. Zuev,  
 A. Aspuru-Guzik,  A. T. Bell,  N. A. Besley,  K. B. Bravaya,  B. R. Brooks,  
 D. Casanova,  Jeng-Da Chai,  S. Coriani,  C. J. Cramer,  
 A. E. DePrince, III,  R. A. DiStasio Jr.,  A. Dreuw,  B. D. Dunietz,  
 T. R. Furlani,  W. A. Goddard III,  S. Grimme,  S. Hammes-Schiffer,  
 T. Head-Gordon,  W. J. Hehre,  Chao-Ping Hsu,  T.-C. Jagau,  Yousung Jung,  
 A. Klamt,  Jing Kong,  D. S. Lambrecht,  WanZhen Liang,  N. J. Mayhall,  
 C. W. McCurdy,  J. B. Neaton,  C. Ochsenfeld,  J. A. Parkhill,  R. Peverati,  
 V. A. Rassolov,  Yihan Shao,  L. V. Slipchenko,  T. Stauch,  R. P. Steele,  
 J. E. Subotnik,  A. J. W. Thom,  A. Tkatchenko,  D. G. Truhlar,  
 T. Van Voorhis,  T. A. Wesolowski,  K. B. Whaley,  H. L. Woodcock III,  
 P. M. Zimmerman,  S. Faraji,  P. M. W. Gill,  M. Head-Gordon,  
 J. M. Herbert,  A. I. Krylov

 Contributors to earlier versions of Q-Chem not listed above: 
 R. D. Adamson,  B. Austin,  R. Baer,  J. Baker,  G. J. O. Beran,  
 K. Brandhorst,  S. T. Brown,  E. F. C. Byrd,  A. K. Chakraborty,  
 G. K. L. Chan,  Chun-Min Chang,  Yunqing Chen,  C.-L. Cheng,  
 Siu Hung Chien,  D. M. Chipman,  D. L. Crittenden,  H. Dachsel,  
 R. J. Doerksen,  A. D. Dutoi,  R. G. Edgar,  J. Fosso-Tande,  
 L. Fusti-Molnar,  D. Ghosh,  A. Ghysels,  A. Golubeva-Zadorozhnaya,  
 J. Gonthier,  M. S. Gordon,  S. R. Gwaltney,  G. Hawkins,  J. E. Herr,  
 A. Heyden,  S. Hirata,  E. G. Hohenstein,  G. Kedziora,  F. J. Keil,  
 C. Kelley,  Jihan Kim,  R. A. King,  R. Z. Khaliullin,  P. P. Korambath,  
 W. Kurlancheek,  A. Laurent,  A. M. Lee,  M. S. Lee,  S. V. Levchenko,  
 Ching Yeh Lin,  D. Liotard,  E. Livshits,  R. C. Lochan,  I. Lotan,  
 L. A. Martinez-Martinez,  P. E. Maslen,  N. Nair,  D. P. O'Neill,  
 D. Neuhauser,  E. Neuscamman,  C. M. Oana,  R. Olivares-Amaya,  R. Olson,  
 T. M. Perrine,  B. Peters,  P. A. Pieniazek,  A. Prociuk,  Y. M. Rhee,  
 J. Ritchie,  M. A. Rohrdanz,  E. Rosta,  N. J. Russ,  H. F. Schaefer III,  
 M. W. Schmidt,  N. E. Schultz,  S. Sharma,  N. Shenvi,  C. D. Sherrill,  
 A. C. Simmonett,  A. Sodt,  T. Stein,  D. Stuck,  K. S. Thanthiriwatte,  
 V. Vanovschi,  L. Vogt,  Tao Wang,  A. Warshel,  M. A. Watson,  
 C. F. Williams,  Q. Wu,  X. Xu,  Jun Yang,  W. Zhang,  Yan Zhao

 Please cite Q-Chem as follows:
 Y. Shao et al., Mol. Phys. 113, 184-215 (2015)
 DOI: 10.1080/00268976.2014.952696

 Q-Chem 5.4.0 for Intel X86 EM64T Linux

 Parts of Q-Chem use Armadillo 9.800.1 (Horizon Scraper).
 http://arma.sourceforge.net/

 Q-Chem begins on Thu Oct 21 16:06:05 2021  

 Host: 
0

     Scratch files written to /scr/lance/184063/893/qchem4665//
 May1621 |scratch|qcdevops|jenkins|workspace|build_RNUM -1
 Processing $rem in /home/mgcf/software-ws/qchem/qchem_540/config/preferences:
 Processing $rem in /home/lance/.qchemrc:
Applying user defined connections for MM calculations

 Checking the input file for inconsistencies... 	...done.

--------------------------------------------------------------
User input:
--------------------------------------------------------------
$rem
JOBTYPE  sp
EXCHANGE   wb97x-d
BASIS   def2-svp
UNRESTRICTED   False
geom_opt_coords   0
max_scf_cycles   1000
geom_opt_max_cycles   1
QM_MM_INTERFACE   Zeolite
force_field   charmm27
user_connect   TRUE
symmetry   off
sym_ignore   TRUE
print_input   true
qmmm_print   false
qm_mm   TRUE
thresh 10
scf_convergence 7
AIMD_FIXED_ATOMS 1381
geom_opt_dmax   80
pop_mulliken false
$end

$QM_ATOMS
1
2
3
4
5
6
7
8
9
10
11
12
13
14
15
16
17
18
19
20
21
22
23
24
25
26
27
28
29
30
31
32
33
34
35
36
37
38
39
40
41
42
43
44
45
46
47
48
49
50
51
52
53
54
55
56
57
58
59
60
61
62
$end

$force_field_params
NumAtomTypes   3000
AtomType   -1   -0.35   1.77   -0.018
AtomType   -13   -0.35   1.77   -0.018
AtomType   -2   0.7   2.2   -0.047
AtomType   -3   -0.175   0.01   0
AtomType   -4    0.175   0.01   0
AtomType   -23   0.525   2.2   -0.047
AtomType   -22   0.35   2.2   -0.047
AtomType   -21   0.175   2.2   -0.047
AtomType   -111   0   1.34   -0.024
AtomType   -112   0   1.34   -0.035
AtomType   -121   0   2.05   -0.078
AtomType   -122   0   2.01   -0.056
AtomType   -912   0   2.175   -0.055
AtomType   -916   0   1.77   -0.1521
AtomType   -901   0   1.32   -0.022
AtomType   -801   0   0.2245   -0.046
AtomType    -31 0   1.9924  -0.07
AtomType    -32 0   2.09    -0.068
AtomType    -33 0   2.08    -0.064
AtomType    -34 0   1.87    -0.18
AtomType    -35 0   2.00    -0.032
AtomType    -41 0   0.2245  -0.046
AtomType    -42 0   0.87    -0.012
AtomType    -43 0   1.1 -0.046
AtomType    -44 0   1.3582  -0.03
AtomType    -45 0   1.26    -0.026
AtomType    -46 0   1.25    -0.031
AtomType    -47 0   1.34    -0.045
AtomType    -51 0   1.765   -0.1921
AtomType    -61 0   1.98    -0.07
AtomType    -62 0   1.89    -0.06
AtomType    -63 0   1.79    -0.18
Bond   -1   -2   304   1.682
Bond   -1   -3   204   1.489
Bond   -2   -3   100   1.45
Angle   -1   -2   -1   34   150
Angle   -2   -1   -2   30   121.5
Angle   -3   -1   -2   44   118
Angle   -1   -2   -3   30   109.5
Torsion   -2   -1   -2   -1   0.1   120   3
Torsion   -2   -1   -2   -3   0.3   120   3
Bond   -121   -122   222.5   1.528
Bond   -121   -121   222.5   1.528
Bond   -122   -122   222.5   1.528
Bond   -111   -121   309   1.089
Bond   -112   -122   309   1.089
Angle   -121   -122   -122   58   115
Angle   -121   -121   -122   58   115
Angle   -121   -121   -121   58   115
Angle   -122   -122   -122   58   115
Angle   -111   -121   -111   35.5   108.4
Angle   -111   -121   -121   35.5   108.4
Angle   -111   -121   -122   35.5   108.4
Angle   -112   -122   -112   35.5   108.4
Angle   -112   -122   -121   35.5   108.4
Angle   -112   -122   -122   35.5   108.4
Torsion   -111   -121   -122   -122   0.16   120   3
Torsion   -111   -121   -121   -121   0.16   120   3
Torsion   -111   -121   -121   -111   0.16   120   3
Torsion   -111   -121   -122   -112   0.16   120   3
Torsion   -112   -122   -122   -122   95.16   180   2
Torsion   -112   -122   -122   -112   95.16   180   2
Torsion   -121   -122   -122   -122   95.16   180   2
Torsion   -121   -122   -122   -112   95.16   180   2
Torsion   -122   -122   -122   -112   95.16   180   2
Torsion   -112   -122   -122   -121   95.16   180   2
Bond   -13   -1   304   1.682
Bond   -13   -121   222.5   1.55
Angle   -13   -121   -121   40   111
Angle   -13   -121   -1   34   150
Angle   -13   -121   -111   35.5   115
Torsion   -1   -13   -121   -121   0.2   120   3
Torsion   -1   -13   -121   -111   0.2   120   3
Bond   -901   -912   342.991   1.093
Bond   -801   -916   560.905   0.972
Bond   -916   -912   363.214   1.418
Bond   -912   -912   306.432   1.508
Angle   -916   -912   -912   71.39   108.133
Angle   -916   -912   -916   83.192   111.368
Angle   -916   -912   -901   56.205   108.577
Angle   -912   -912   -901   45.77   110.549
Angle   -912   -916   -912   86.143   106.926
Angle   -912   -912   -912   61.243   109.608
Angle   -912   -916   -801   57.069   106.503
Angle   -901   -912   -901   37.134   108.836
Torsion   -912   -916   -912   -912   -0.341   0   1
Torsion   -912   -916   -912   -912   0.378   180   2
Torsion   -912   -916   -912   -912   0.378   0   3
Torsion   -912   -916   -912   -901   0.285   0   1
Torsion   -912   -916   -912   -901   0.16   180   2
Torsion   -912   -916   -912   -901   0.285   0   3
Torsion   -912   -912   -912   -912   0.051   0   1
Torsion   -912   -912   -912   -912   0.341   180   2
Torsion   -912   -912   -912   -912   0.166   0   3
Torsion   -912   -912   -912   -916   -0.344   0   1
Torsion   -912   -912   -912   -916   0.878   180   2
Torsion   -912   -912   -912   -916   0.238   0   3
Torsion   -912   -912   -912   -901   0.32   0   1
Torsion   -912   -912   -912   -901   -0.315   180   2
Torsion   -912   -912   -912   -901   0.132   0   3
Torsion   -912   -912   -916   -801   0.135   180   2
Torsion   -912   -912   -916   -801   0.118   0   3
Torsion   -916   -912   -912   -916   0.204   0   1
Torsion   -916   -912   -912   -916   0.699   180   2
Torsion   -916   -912   -912   -916   0.48   0   3
Torsion   -916   -912   -912   -901   -0.327   0   1
Torsion   -916   -912   -912   -901   0.536   180   2
Torsion   -916   -912   -912   -901   0.14   0   3
Torsion   -916   -912   -916   -801   0.744   0   1
Torsion   -916   -912   -916   -801   -1.7   180   2
Torsion   -916   -912   -916   -801   -0.16   0   3
Torsion   -912   -916   -912   -916   0.115   0   1
Torsion   -912   -916   -912   -916   -0.355   180   2
Torsion   -912   -916   -912   -916   0.361   0   3
Torsion   -901   -912   -912   -901   0.142   0   1
Torsion   -901   -912   -912   -901   -0.693   180   2
Torsion   -901   -912   -912   -901   0.157   0   3
Torsion   -901   -912   -916   -801   0.298   0   1
Torsion   -901   -912   -916   -801   -0.138   180   2
Torsion   -901   -912   -916   -801   0.173   0   3
Imptor	-912   -912   -916   -916       0.000  0     0.00
Imptor	-912   -916   -916   -901     0.000  0     0.00
Imptor	-912   -912   -916   -912       0.000  0     0.00
Imptor	-912   -912   -916   -901     0.000  0     0.00
Imptor	-912   -912   -912   -916       0.000  0     0.00
Imptor	-912   -912   -912   -901     0.000  0     0.00
Imptor	-912   -916   -912   -901     0.000  0     0.00
$end

$opt
fixed
63 XYZ
64 XYZ
65 XYZ
66 XYZ
67 XYZ
68 XYZ
69 XYZ
70 XYZ
71 XYZ
72 XYZ
73 XYZ
74 XYZ
75 XYZ
76 XYZ
77 XYZ
78 XYZ
79 XYZ
80 XYZ
81 XYZ
82 XYZ
83 XYZ
84 XYZ
85 XYZ
86 XYZ
87 XYZ
88 XYZ
89 XYZ
90 XYZ
91 XYZ
92 XYZ
93 XYZ
94 XYZ
95 XYZ
96 XYZ
97 XYZ
98 XYZ
99 XYZ
100 XYZ
101 XYZ
102 XYZ
103 XYZ
104 XYZ
105 XYZ
106 XYZ
107 XYZ
108 XYZ
109 XYZ
110 XYZ
111 XYZ
112 XYZ
113 XYZ
114 XYZ
115 XYZ
116 XYZ
117 XYZ
118 XYZ
119 XYZ
120 XYZ
121 XYZ
122 XYZ
123 XYZ
124 XYZ
125 XYZ
126 XYZ
127 XYZ
128 XYZ
129 XYZ
130 XYZ
131 XYZ
132 XYZ
133 XYZ
134 XYZ
135 XYZ
136 XYZ
137 XYZ
138 XYZ
139 XYZ
140 XYZ
141 XYZ
142 XYZ
143 XYZ
144 XYZ
145 XYZ
146 XYZ
147 XYZ
148 XYZ
149 XYZ
150 XYZ
151 XYZ
152 XYZ
153 XYZ
154 XYZ
155 XYZ
156 XYZ
157 XYZ
158 XYZ
159 XYZ
160 XYZ
161 XYZ
162 XYZ
163 XYZ
164 XYZ
165 XYZ
166 XYZ
167 XYZ
168 XYZ
169 XYZ
170 XYZ
171 XYZ
172 XYZ
173 XYZ
174 XYZ
175 XYZ
176 XYZ
177 XYZ
178 XYZ
179 XYZ
180 XYZ
181 XYZ
182 XYZ
183 XYZ
184 XYZ
185 XYZ
186 XYZ
187 XYZ
188 XYZ
189 XYZ
190 XYZ
191 XYZ
192 XYZ
193 XYZ
194 XYZ
195 XYZ
196 XYZ
197 XYZ
198 XYZ
199 XYZ
200 XYZ
201 XYZ
202 XYZ
203 XYZ
204 XYZ
205 XYZ
206 XYZ
207 XYZ
208 XYZ
209 XYZ
210 XYZ
211 XYZ
212 XYZ
213 XYZ
214 XYZ
215 XYZ
216 XYZ
217 XYZ
218 XYZ
219 XYZ
220 XYZ
221 XYZ
222 XYZ
223 XYZ
224 XYZ
225 XYZ
226 XYZ
227 XYZ
228 XYZ
229 XYZ
230 XYZ
231 XYZ
232 XYZ
233 XYZ
234 XYZ
235 XYZ
236 XYZ
237 XYZ
238 XYZ
239 XYZ
240 XYZ
241 XYZ
242 XYZ
243 XYZ
244 XYZ
245 XYZ
246 XYZ
247 XYZ
248 XYZ
249 XYZ
250 XYZ
251 XYZ
252 XYZ
253 XYZ
254 XYZ
255 XYZ
256 XYZ
257 XYZ
258 XYZ
259 XYZ
260 XYZ
261 XYZ
262 XYZ
263 XYZ
264 XYZ
265 XYZ
266 XYZ
267 XYZ
268 XYZ
269 XYZ
270 XYZ
271 XYZ
272 XYZ
273 XYZ
274 XYZ
275 XYZ
276 XYZ
277 XYZ
278 XYZ
279 XYZ
280 XYZ
281 XYZ
282 XYZ
283 XYZ
284 XYZ
285 XYZ
286 XYZ
287 XYZ
288 XYZ
289 XYZ
290 XYZ
291 XYZ
292 XYZ
293 XYZ
294 XYZ
295 XYZ
296 XYZ
297 XYZ
298 XYZ
299 XYZ
300 XYZ
301 XYZ
302 XYZ
303 XYZ
304 XYZ
305 XYZ
306 XYZ
307 XYZ
308 XYZ
309 XYZ
310 XYZ
311 XYZ
312 XYZ
313 XYZ
314 XYZ
315 XYZ
316 XYZ
317 XYZ
318 XYZ
319 XYZ
320 XYZ
321 XYZ
322 XYZ
323 XYZ
324 XYZ
325 XYZ
326 XYZ
327 XYZ
328 XYZ
329 XYZ
330 XYZ
331 XYZ
332 XYZ
333 XYZ
334 XYZ
335 XYZ
336 XYZ
337 XYZ
338 XYZ
339 XYZ
340 XYZ
341 XYZ
342 XYZ
343 XYZ
344 XYZ
345 XYZ
346 XYZ
347 XYZ
348 XYZ
349 XYZ
350 XYZ
351 XYZ
352 XYZ
353 XYZ
354 XYZ
355 XYZ
356 XYZ
357 XYZ
358 XYZ
359 XYZ
360 XYZ
361 XYZ
362 XYZ
363 XYZ
364 XYZ
365 XYZ
366 XYZ
367 XYZ
368 XYZ
369 XYZ
370 XYZ
371 XYZ
372 XYZ
373 XYZ
374 XYZ
375 XYZ
376 XYZ
377 XYZ
378 XYZ
379 XYZ
380 XYZ
381 XYZ
382 XYZ
383 XYZ
384 XYZ
385 XYZ
386 XYZ
387 XYZ
388 XYZ
389 XYZ
390 XYZ
391 XYZ
392 XYZ
393 XYZ
394 XYZ
395 XYZ
396 XYZ
397 XYZ
398 XYZ
399 XYZ
400 XYZ
401 XYZ
402 XYZ
403 XYZ
404 XYZ
405 XYZ
406 XYZ
407 XYZ
408 XYZ
409 XYZ
410 XYZ
411 XYZ
412 XYZ
413 XYZ
414 XYZ
415 XYZ
416 XYZ
417 XYZ
418 XYZ
419 XYZ
420 XYZ
421 XYZ
422 XYZ
423 XYZ
424 XYZ
425 XYZ
426 XYZ
427 XYZ
428 XYZ
429 XYZ
430 XYZ
431 XYZ
432 XYZ
433 XYZ
434 XYZ
435 XYZ
436 XYZ
437 XYZ
438 XYZ
439 XYZ
440 XYZ
441 XYZ
442 XYZ
443 XYZ
444 XYZ
445 XYZ
446 XYZ
447 XYZ
448 XYZ
449 XYZ
450 XYZ
451 XYZ
452 XYZ
453 XYZ
454 XYZ
455 XYZ
456 XYZ
457 XYZ
458 XYZ
459 XYZ
460 XYZ
461 XYZ
462 XYZ
463 XYZ
464 XYZ
465 XYZ
466 XYZ
467 XYZ
468 XYZ
469 XYZ
470 XYZ
471 XYZ
472 XYZ
473 XYZ
474 XYZ
475 XYZ
476 XYZ
477 XYZ
478 XYZ
479 XYZ
480 XYZ
481 XYZ
482 XYZ
483 XYZ
484 XYZ
485 XYZ
486 XYZ
487 XYZ
488 XYZ
489 XYZ
490 XYZ
491 XYZ
492 XYZ
493 XYZ
494 XYZ
495 XYZ
496 XYZ
497 XYZ
498 XYZ
499 XYZ
500 XYZ
501 XYZ
502 XYZ
503 XYZ
504 XYZ
505 XYZ
506 XYZ
507 XYZ
508 XYZ
509 XYZ
510 XYZ
511 XYZ
512 XYZ
513 XYZ
514 XYZ
515 XYZ
516 XYZ
517 XYZ
518 XYZ
519 XYZ
520 XYZ
521 XYZ
522 XYZ
523 XYZ
524 XYZ
525 XYZ
526 XYZ
527 XYZ
528 XYZ
529 XYZ
530 XYZ
531 XYZ
532 XYZ
533 XYZ
534 XYZ
535 XYZ
536 XYZ
537 XYZ
538 XYZ
539 XYZ
540 XYZ
541 XYZ
542 XYZ
543 XYZ
544 XYZ
545 XYZ
546 XYZ
547 XYZ
548 XYZ
549 XYZ
550 XYZ
551 XYZ
552 XYZ
553 XYZ
554 XYZ
555 XYZ
556 XYZ
557 XYZ
558 XYZ
559 XYZ
560 XYZ
561 XYZ
562 XYZ
563 XYZ
564 XYZ
565 XYZ
566 XYZ
567 XYZ
568 XYZ
569 XYZ
570 XYZ
571 XYZ
572 XYZ
573 XYZ
574 XYZ
575 XYZ
576 XYZ
577 XYZ
578 XYZ
579 XYZ
580 XYZ
581 XYZ
582 XYZ
583 XYZ
584 XYZ
585 XYZ
586 XYZ
587 XYZ
588 XYZ
589 XYZ
590 XYZ
591 XYZ
592 XYZ
593 XYZ
594 XYZ
595 XYZ
596 XYZ
597 XYZ
598 XYZ
599 XYZ
600 XYZ
601 XYZ
602 XYZ
603 XYZ
604 XYZ
605 XYZ
606 XYZ
607 XYZ
608 XYZ
609 XYZ
610 XYZ
611 XYZ
612 XYZ
613 XYZ
614 XYZ
615 XYZ
616 XYZ
617 XYZ
618 XYZ
619 XYZ
620 XYZ
621 XYZ
622 XYZ
623 XYZ
624 XYZ
625 XYZ
626 XYZ
627 XYZ
628 XYZ
629 XYZ
630 XYZ
631 XYZ
632 XYZ
633 XYZ
634 XYZ
635 XYZ
636 XYZ
637 XYZ
638 XYZ
639 XYZ
640 XYZ
641 XYZ
642 XYZ
643 XYZ
644 XYZ
645 XYZ
646 XYZ
647 XYZ
648 XYZ
649 XYZ
650 XYZ
651 XYZ
652 XYZ
653 XYZ
654 XYZ
655 XYZ
656 XYZ
657 XYZ
658 XYZ
659 XYZ
660 XYZ
661 XYZ
662 XYZ
663 XYZ
664 XYZ
665 XYZ
666 XYZ
667 XYZ
668 XYZ
669 XYZ
670 XYZ
671 XYZ
672 XYZ
673 XYZ
674 XYZ
675 XYZ
676 XYZ
677 XYZ
678 XYZ
679 XYZ
680 XYZ
681 XYZ
682 XYZ
683 XYZ
684 XYZ
685 XYZ
686 XYZ
687 XYZ
688 XYZ
689 XYZ
690 XYZ
691 XYZ
692 XYZ
693 XYZ
694 XYZ
695 XYZ
696 XYZ
697 XYZ
698 XYZ
699 XYZ
700 XYZ
701 XYZ
702 XYZ
703 XYZ
704 XYZ
705 XYZ
706 XYZ
707 XYZ
708 XYZ
709 XYZ
710 XYZ
711 XYZ
712 XYZ
713 XYZ
714 XYZ
715 XYZ
716 XYZ
717 XYZ
718 XYZ
719 XYZ
720 XYZ
721 XYZ
722 XYZ
723 XYZ
724 XYZ
725 XYZ
726 XYZ
727 XYZ
728 XYZ
729 XYZ
730 XYZ
731 XYZ
732 XYZ
733 XYZ
734 XYZ
735 XYZ
736 XYZ
737 XYZ
738 XYZ
739 XYZ
740 XYZ
741 XYZ
742 XYZ
743 XYZ
744 XYZ
745 XYZ
746 XYZ
747 XYZ
748 XYZ
749 XYZ
750 XYZ
751 XYZ
752 XYZ
753 XYZ
754 XYZ
755 XYZ
756 XYZ
757 XYZ
758 XYZ
759 XYZ
760 XYZ
761 XYZ
762 XYZ
763 XYZ
764 XYZ
765 XYZ
766 XYZ
767 XYZ
768 XYZ
769 XYZ
770 XYZ
771 XYZ
772 XYZ
773 XYZ
774 XYZ
775 XYZ
776 XYZ
777 XYZ
778 XYZ
779 XYZ
780 XYZ
781 XYZ
782 XYZ
783 XYZ
784 XYZ
785 XYZ
786 XYZ
787 XYZ
788 XYZ
789 XYZ
790 XYZ
791 XYZ
792 XYZ
793 XYZ
794 XYZ
795 XYZ
796 XYZ
797 XYZ
798 XYZ
799 XYZ
800 XYZ
801 XYZ
802 XYZ
803 XYZ
804 XYZ
805 XYZ
806 XYZ
807 XYZ
808 XYZ
809 XYZ
810 XYZ
811 XYZ
812 XYZ
813 XYZ
814 XYZ
815 XYZ
816 XYZ
817 XYZ
818 XYZ
819 XYZ
820 XYZ
821 XYZ
822 XYZ
823 XYZ
824 XYZ
825 XYZ
826 XYZ
827 XYZ
828 XYZ
829 XYZ
830 XYZ
831 XYZ
832 XYZ
833 XYZ
834 XYZ
835 XYZ
836 XYZ
837 XYZ
838 XYZ
839 XYZ
840 XYZ
841 XYZ
842 XYZ
843 XYZ
844 XYZ
845 XYZ
846 XYZ
847 XYZ
848 XYZ
849 XYZ
850 XYZ
851 XYZ
852 XYZ
853 XYZ
854 XYZ
855 XYZ
856 XYZ
857 XYZ
858 XYZ
859 XYZ
860 XYZ
861 XYZ
862 XYZ
863 XYZ
864 XYZ
865 XYZ
866 XYZ
867 XYZ
868 XYZ
869 XYZ
870 XYZ
871 XYZ
872 XYZ
873 XYZ
874 XYZ
875 XYZ
876 XYZ
877 XYZ
878 XYZ
879 XYZ
880 XYZ
881 XYZ
882 XYZ
883 XYZ
884 XYZ
885 XYZ
886 XYZ
887 XYZ
888 XYZ
889 XYZ
890 XYZ
891 XYZ
892 XYZ
893 XYZ
894 XYZ
895 XYZ
896 XYZ
897 XYZ
898 XYZ
899 XYZ
900 XYZ
901 XYZ
902 XYZ
903 XYZ
904 XYZ
905 XYZ
906 XYZ
907 XYZ
908 XYZ
909 XYZ
910 XYZ
911 XYZ
912 XYZ
913 XYZ
914 XYZ
915 XYZ
916 XYZ
917 XYZ
918 XYZ
919 XYZ
920 XYZ
921 XYZ
922 XYZ
923 XYZ
924 XYZ
925 XYZ
926 XYZ
927 XYZ
928 XYZ
929 XYZ
930 XYZ
931 XYZ
932 XYZ
933 XYZ
934 XYZ
935 XYZ
936 XYZ
937 XYZ
938 XYZ
939 XYZ
940 XYZ
941 XYZ
942 XYZ
943 XYZ
944 XYZ
945 XYZ
946 XYZ
947 XYZ
948 XYZ
949 XYZ
950 XYZ
951 XYZ
952 XYZ
953 XYZ
954 XYZ
955 XYZ
956 XYZ
957 XYZ
958 XYZ
959 XYZ
960 XYZ
961 XYZ
962 XYZ
963 XYZ
964 XYZ
965 XYZ
966 XYZ
967 XYZ
968 XYZ
969 XYZ
970 XYZ
971 XYZ
972 XYZ
973 XYZ
974 XYZ
975 XYZ
976 XYZ
977 XYZ
978 XYZ
979 XYZ
980 XYZ
981 XYZ
982 XYZ
983 XYZ
984 XYZ
985 XYZ
986 XYZ
987 XYZ
988 XYZ
989 XYZ
990 XYZ
991 XYZ
992 XYZ
993 XYZ
994 XYZ
995 XYZ
996 XYZ
997 XYZ
998 XYZ
999 XYZ
1000 XYZ
1001 XYZ
1002 XYZ
1003 XYZ
1004 XYZ
1005 XYZ
1006 XYZ
1007 XYZ
1008 XYZ
1009 XYZ
1010 XYZ
1011 XYZ
1012 XYZ
1013 XYZ
1014 XYZ
1015 XYZ
1016 XYZ
1017 XYZ
1018 XYZ
1019 XYZ
1020 XYZ
1021 XYZ
1022 XYZ
1023 XYZ
1024 XYZ
1025 XYZ
1026 XYZ
1027 XYZ
1028 XYZ
1029 XYZ
1030 XYZ
1031 XYZ
1032 XYZ
1033 XYZ
1034 XYZ
1035 XYZ
1036 XYZ
1037 XYZ
1038 XYZ
1039 XYZ
1040 XYZ
1041 XYZ
1042 XYZ
1043 XYZ
1044 XYZ
1045 XYZ
1046 XYZ
1047 XYZ
1048 XYZ
1049 XYZ
1050 XYZ
1051 XYZ
1052 XYZ
1053 XYZ
1054 XYZ
1055 XYZ
1056 XYZ
1057 XYZ
1058 XYZ
1059 XYZ
1060 XYZ
1061 XYZ
1062 XYZ
1063 XYZ
1064 XYZ
1065 XYZ
1066 XYZ
1067 XYZ
1068 XYZ
1069 XYZ
1070 XYZ
1071 XYZ
1072 XYZ
1073 XYZ
1074 XYZ
1075 XYZ
1076 XYZ
1077 XYZ
1078 XYZ
1079 XYZ
1080 XYZ
1081 XYZ
1082 XYZ
1083 XYZ
1084 XYZ
1085 XYZ
1086 XYZ
1087 XYZ
1088 XYZ
1089 XYZ
1090 XYZ
1091 XYZ
1092 XYZ
1093 XYZ
1094 XYZ
1095 XYZ
1096 XYZ
1097 XYZ
1098 XYZ
1099 XYZ
1100 XYZ
1101 XYZ
1102 XYZ
1103 XYZ
1104 XYZ
1105 XYZ
1106 XYZ
1107 XYZ
1108 XYZ
1109 XYZ
1110 XYZ
1111 XYZ
1112 XYZ
1113 XYZ
1114 XYZ
1115 XYZ
1116 XYZ
1117 XYZ
1118 XYZ
1119 XYZ
1120 XYZ
1121 XYZ
1122 XYZ
1123 XYZ
1124 XYZ
1125 XYZ
1126 XYZ
1127 XYZ
1128 XYZ
1129 XYZ
1130 XYZ
1131 XYZ
1132 XYZ
1133 XYZ
1134 XYZ
1135 XYZ
1136 XYZ
1137 XYZ
1138 XYZ
1139 XYZ
1140 XYZ
1141 XYZ
1142 XYZ
1143 XYZ
1144 XYZ
1145 XYZ
1146 XYZ
1147 XYZ
1148 XYZ
1149 XYZ
1150 XYZ
1151 XYZ
1152 XYZ
1153 XYZ
1154 XYZ
1155 XYZ
1156 XYZ
1157 XYZ
1158 XYZ
1159 XYZ
1160 XYZ
1161 XYZ
1162 XYZ
1163 XYZ
1164 XYZ
1165 XYZ
1166 XYZ
1167 XYZ
1168 XYZ
1169 XYZ
1170 XYZ
1171 XYZ
1172 XYZ
1173 XYZ
1174 XYZ
1175 XYZ
1176 XYZ
1177 XYZ
1178 XYZ
1179 XYZ
1180 XYZ
1181 XYZ
1182 XYZ
1183 XYZ
1184 XYZ
1185 XYZ
1186 XYZ
1187 XYZ
1188 XYZ
1189 XYZ
1190 XYZ
1191 XYZ
1192 XYZ
1193 XYZ
1194 XYZ
1195 XYZ
1196 XYZ
1197 XYZ
1198 XYZ
1199 XYZ
1200 XYZ
1201 XYZ
1202 XYZ
1203 XYZ
1204 XYZ
1205 XYZ
1206 XYZ
1207 XYZ
1208 XYZ
1209 XYZ
1210 XYZ
1211 XYZ
1212 XYZ
1213 XYZ
1214 XYZ
1215 XYZ
1216 XYZ
1217 XYZ
1218 XYZ
1219 XYZ
1220 XYZ
1221 XYZ
1222 XYZ
1223 XYZ
1224 XYZ
1225 XYZ
1226 XYZ
1227 XYZ
1228 XYZ
1229 XYZ
1230 XYZ
1231 XYZ
1232 XYZ
1233 XYZ
1234 XYZ
1235 XYZ
1236 XYZ
1237 XYZ
1238 XYZ
1239 XYZ
1240 XYZ
1241 XYZ
1242 XYZ
1243 XYZ
1244 XYZ
1245 XYZ
1246 XYZ
1247 XYZ
1248 XYZ
1249 XYZ
1250 XYZ
1251 XYZ
1252 XYZ
1253 XYZ
1254 XYZ
1255 XYZ
1256 XYZ
1257 XYZ
1258 XYZ
1259 XYZ
1260 XYZ
1261 XYZ
1262 XYZ
1263 XYZ
1264 XYZ
1265 XYZ
1266 XYZ
1267 XYZ
1268 XYZ
1269 XYZ
1270 XYZ
1271 XYZ
1272 XYZ
1273 XYZ
1274 XYZ
1275 XYZ
1276 XYZ
1277 XYZ
1278 XYZ
1279 XYZ
1280 XYZ
1281 XYZ
1282 XYZ
1283 XYZ
1284 XYZ
1285 XYZ
1286 XYZ
1287 XYZ
1288 XYZ
1289 XYZ
1290 XYZ
1291 XYZ
1292 XYZ
1293 XYZ
1294 XYZ
1295 XYZ
1296 XYZ
1297 XYZ
1298 XYZ
1299 XYZ
1300 XYZ
1301 XYZ
1302 XYZ
1303 XYZ
1304 XYZ
1305 XYZ
1306 XYZ
1307 XYZ
1308 XYZ
1309 XYZ
1310 XYZ
1311 XYZ
1312 XYZ
1313 XYZ
1314 XYZ
1315 XYZ
1316 XYZ
1317 XYZ
1318 XYZ
1319 XYZ
1320 XYZ
1321 XYZ
1322 XYZ
1323 XYZ
1324 XYZ
1325 XYZ
1326 XYZ
1327 XYZ
1328 XYZ
1329 XYZ
1330 XYZ
1331 XYZ
1332 XYZ
1333 XYZ
1334 XYZ
1335 XYZ
1336 XYZ
1337 XYZ
1338 XYZ
1339 XYZ
1340 XYZ
1341 XYZ
1342 XYZ
1343 XYZ
1344 XYZ
1345 XYZ
1346 XYZ
1347 XYZ
1348 XYZ
1349 XYZ
1350 XYZ
1351 XYZ
1352 XYZ
1353 XYZ
1354 XYZ
1355 XYZ
1356 XYZ
1357 XYZ
1358 XYZ
1359 XYZ
1360 XYZ
1361 XYZ
1362 XYZ
1363 XYZ
1364 XYZ
1365 XYZ
1366 XYZ
1367 XYZ
1368 XYZ
1369 XYZ
1370 XYZ
1371 XYZ
1372 XYZ
1373 XYZ
1374 XYZ
1375 XYZ
1376 XYZ
1377 XYZ
1378 XYZ
1379 XYZ
1380 XYZ
1381 XYZ
1382 XYZ
1383 XYZ
1384 XYZ
1385 XYZ
1386 XYZ
1387 XYZ
1388 XYZ
1389 XYZ
1390 XYZ
1391 XYZ
1392 XYZ
1393 XYZ
1394 XYZ
1395 XYZ
1396 XYZ
1397 XYZ
1398 XYZ
1399 XYZ
1400 XYZ
1401 XYZ
1402 XYZ
1403 XYZ
1404 XYZ
1405 XYZ
1406 XYZ
1407 XYZ
1408 XYZ
1409 XYZ
1410 XYZ
1411 XYZ
1412 XYZ
1413 XYZ
1414 XYZ
1415 XYZ
1416 XYZ
1417 XYZ
1418 XYZ
1419 XYZ
1420 XYZ
1421 XYZ
1422 XYZ
1423 XYZ
1424 XYZ
1425 XYZ
1426 XYZ
1427 XYZ
1428 XYZ
1429 XYZ
1430 XYZ
1431 XYZ
1432 XYZ
1433 XYZ
1434 XYZ
1435 XYZ
1436 XYZ
1437 XYZ
1438 XYZ
1439 XYZ
1440 XYZ
1441 XYZ
1442 XYZ
1443 XYZ
endfixed
$end

$molecule
0 1
C       -1.0775048588     -0.0918292124     0.7192399632 0  9  10  11  3
H       1.0120033876     -0.5908448427     0.9671982486 0  3  0  0  0
C       0.3959614856     0.1241936800     0.3969393756 0  1  2  4  6
H       0.7046519390     1.1290906283     0.7289013499 0  3  0  0  0
H       0.4383656442     -1.0392432674     -1.4317554605 0  6  0  0  0
C       0.7073201575     -0.0241062818     -1.0902534128 0  3  5  7  8
H       1.7758265796     0.1241811106     -1.3068597885 0  6  0  0  0
H       0.1456545493     0.7302619502     -1.6709417110 0  6  0  0  0
H       -1.4083460770     -1.0963437298     0.4087214983 0  1  0  0  0
H       -1.7069687431     0.6469908896     0.1983902604 0  1  0  0  0
H       -1.2681070345     -0.0024215433     1.7976500411 0  1  0  0  0
H       -1.6908667257     -0.1610703232     -2.6430588745 0  14  0  0  0
Al       -1.7089354961     -1.9773510128     -4.2427626312 0  17  14  15  16
O       -1.9123496152     -0.1704939919     -3.5952594814 0  18  12  13  0
O       -0.3894819668     -2.0261522968     -5.3263543552 0  19  13  0  0
O       -3.2068930689     -2.3869081743     -4.9740600612 0  20  13  0  0
O       -1.4303611829     -2.6972321900     -2.7035777501 0  13  21  0  0
Si       -2.2124823631     1.3773924820     -4.2443278969 0  22  14  23  24
Si       -0.0476052063     -2.6361450506     -6.8047482165 0  63  65  15  64
Si       -4.6543256535     -3.1008433085     -5.0478821683 0  25  66  67  16
Si       -1.2966598212     -4.1315702680     -1.9781451894 0  17  26  27  68
O       -3.6615996244     1.4305709044     -4.9595895540 0  18  28  0  0
O       -2.1014528958     2.3457107560     -2.9552763229 0  18  29  0  0
O       -1.0754111403     1.6973515712     -5.3398814020 0  18  30  0  0
O       -5.7030795970     -2.3817627877     -3.9852528313 0  20  31  0  0
O       -2.7050554732     -4.4583108005     -1.1779539884 0  21  32  0  0
O       -0.0702228150     -4.0613525384     -0.8821910467 0  33  21  0  0
Si       -5.2876521011     1.7183934171     -5.0959159712 0  35  22  71  72
Si       -2.4422797396     3.7254927156     -2.1273524341 0  41  73  38  23
Si       -0.8719585174     2.3343672310     -6.8601160589 0  74  75  76  24
Si       -6.1829716730     -2.3911575886     -2.4307501595 0  25  37  70  0
Si       -4.2752497907     -4.2878846453     -0.7446627639 0  26  37  79  80
Si       0.2958759608     -4.3935244534     0.6567750273 0  27  60  59  94
O       -5.7581552069     1.6048867410     -1.4592843418 0  39  40  0  0
O       -6.0728209943     0.8327005136     -3.9826558176 0  28  39  0  0
O       -6.5700526149     -0.8580611276     -1.9720789157 0  39  0  0  0
O       -4.9824134933     -2.9780234029     -1.4736407552 0  31  32  0  0
O       -3.8825275298     3.5363147479     -1.4023036528 0  29  40  0  0
Si       -6.6732902451     0.6863542240     -2.4659052348 0  34  35  36  69
Si       -5.3619723679     3.0800793522     -0.8641495408 0  34  38  77  78
O       -1.2501416616     3.9404556897     -1.0393739652 0  42  29  0  0
Si       -0.9804288366     4.5524100827     0.4542726474 0  41  83  46  47
O       0.7724829249     2.4264612810     3.8980243562 0  53  54  0  0
O       -0.5537596279     0.1488121766     4.3772378178 0  57  53  0  0
O       2.4012776269     0.5271884343     2.9438271824 0  58  54  0  0
O       0.4870881302     4.0725746795     0.9623409320 0  42  55  0  0
O       -2.1475135305     3.9961237066     1.4521753485 0  42  56  0  0
O       2.6625603531     3.0405019243     2.1090805450 0  54  55  0  0
O       -1.8665639190     2.3057665621     3.5366638225 0  53  56  0  0
O       1.3713940104     -1.6816018083     4.0449756105 0  57  58  0  0
O       3.3721461466     -1.8585753323     2.2716189619 0  58  61  0  0
O       -1.1929394671     -2.2917338387     3.5414601686 0  57  62  0  0
Si       -0.6264663869     1.7699966206     4.4573056533 0  49  89  43  44
Si       2.2980458223     2.0937401081     3.3868720646 0  90  43  45  48
Si       2.0375208630     4.3816687722     1.4080612092 0  84  46  88  48
Si       -2.5698541361     3.6965877910     3.0137950521 0  49  82  85  47
Si       -0.1875633526     -1.4336547945     4.4971140984 0  44  91  52  50
Si       2.7451174365     -0.9764121271     3.4879176747 0  50  51  92  45
O       1.5134862973     -3.4136964653     1.1461230727 0  33  61  0  0
O       -1.0252303564     -4.1311797262     1.5869817907 0  33  62  0  0
Si       3.0953795733     -3.3141179846     1.5657807001 0  81  59  93  51
Si       -1.5286454272     -3.8502611216     3.1190420404 0  52  60  86  87
O       -1.1217657425     -1.8313649668     -7.8305720684     -1	 19	 95	 0	 0
O       -0.1203953397     -4.3237627666     -6.7900315724     -1	 19	 96	 0	 0
O       1.5240790758     -2.2744058547     -7.1278986241      -1	 97	 19	 0	 0
O       -5.2849875050     -2.8950745953     -6.4989665027     -1	 98	 20	 0	 0
O       -4.6015540283     -4.6883401670     -4.6761765334     -1	 99	 20	 0	 0
O       -0.8759821374     -5.3424715599     -2.9685611767     -1	 100	 21	 0	 0
O       -8.1736341624     1.2542634977     -2.5494687018      -1	 101	 39	 0	 0
O       -7.5077488846     -3.2707476122     -2.3158723568     -1	 102	 31	 0	 0
O       -5.7830406533     1.2577797953     -6.5350008257      -1	 114	 28	 0	 0
O       -5.5588124157     3.3032393990     -4.8582573429      -1	 115	 28	 0	 0
O       -2.4985133702     4.9871422510     -3.1047408938      -1	 116	 29	 0	 0
O       -1.6023850745     1.4168048579     -7.9326889027      -1	 117	 30	 0	 0
O       -1.4231101735     3.8618534241     -6.9304154775      -1	 118	 30	 0	 0
O       0.6681591157     2.2174720909     -7.1880446507       -1	 30	 119	 0	 0
O       -6.4114608255     4.1529827544     -1.4189905723      -1	 109	 40	 0	 0
O       -5.3511723956     3.0032972281     0.7261704090       -1	 110	 40	 0	 0
O       -5.0385436407     -5.6128118091     -1.2408980496     -1	 120	 32	 0	 0
O       -4.4603850043     -4.0969106077     0.8525013721      -1	 121	 32	 0	 0
O       4.0274524618     -3.4379664688     0.2744937856       -1	 489	 61	 0	 0
O       -4.1460894203     3.5176974322     3.0499209234       -1	 110	 56	 0	 0
O       -1.0314972351     6.1483334529     0.4169008614       -1	 42	 237	 0	 0
O       2.0443158537     5.5887027407     2.4706579816        -1	 235	 55	 0	 0
O       -2.0950754799     4.9231666103     3.9476732309       -1	 234	 56	 0	 0
O       -3.1003821715     -4.0632340786     3.1594415938      -1	 121	 62	 0	 0
O       -0.7621489133     -4.8457631575     4.1310497817      -1	 738	 62	 0	 0
O       2.8978284989     4.7433172042     0.1139411002        -1	 55	 544	 0	 0
O       -0.8601820599     2.2303534611     5.9687889092       -1	 652	 53	 0	 0
O       3.3204735189     2.3893785238     4.5711008321        -1	 653	 54	 0	 0
O       -0.3619473087     -1.9234837032     6.0048575269      -1	 57	 660	 0	 0
O       3.8012744538     -0.8597740746     4.6732519612       -1	 58	 661	 0	 0
O       3.4246294108     -4.4799100993     2.6211935619       -1	 739	 61	 0	 0
O       0.7627839882     -5.9129562673     0.8436222901       -1	 33	 741	 0	 0
Si       -2.1925246032     -1.9337513893     -9.0310409279    -23	 1193	 1194	 132	 63
Si       0.5082844764     -5.8055057481     -6.5972378339     -23	 1201	 1203	 133	 64
Si       2.3938282881     -1.3623431008     -8.1367290561     -23	 65	 1196	 1197	 1198
Si       -5.1254704723     -2.3854438183     -8.0186440302    -23	 66	 1195	 132	 1192
Si       -4.1841215787     -6.2411499741     -4.8181126210    -23	 67	 134	 1199	 1200
Si       -0.8612581823     -6.5728017859     -4.0127487748    -23	 1202	 68	 133	 134
Si       -9.5278823727     1.2398681952     -1.6808804448     -23	 105	 69	 103	 104
Si       -8.8673948754     -3.6398890324     -1.5246989299    -23	 106	 107	 108	 70
O       -9.3713867440     0.4593592528     -0.2370383797      -1	 101	 111	 0	 0
O       -10.6855047510     0.4934990617     -2.5347847402     -1	 101	 112	 0	 0
O       -9.9439868869     2.7729685894     -1.3818081882      -1	 113	 101	 0	 0
O       -8.9783669874     -2.7691966483     -0.1587040680     -1	 122	 102	 0	 0
O       -10.1500570712     -3.2922111371     -2.4687538926    -1	 123	 102	 0	 0
O       -8.8733856430     -5.2247145073     -1.1583734941     -1	 124	 102	 0	 0
Si       -7.1436650391     5.2844680257     -2.3239558039     -23	 162	 220	 77	 156
Si       -5.4185329713     3.8580307028     2.1037128730      -22	 82	 170	 173	 78
Si       -9.2842355122     0.4117809172     1.3787864762      -2	 211	 155	 196	 103
Si       -12.2082432697     -0.0691999003     -2.4319145207   -2	 153	 219	 212	 104
Si       -9.9728762376     4.3599976474     -1.7335555043     -2	 105	 220	 206	 207
Si       -5.5640429229     0.7727619381     -8.0639055553     -23	 1192	 276	 71	 288
Si       -5.6367363390     4.9127381376     -5.0354173624     -23	 161	 156	 157	 72
Si       -2.8108570367     6.0145365001     -4.3172108897     -23	 73	 163	 161	 160
Si       -2.6430471371     1.0972044946     -9.1313448497     -23	 1193	 74	 276	 285
Si       -1.2737173298     5.4792275109     -6.8609400041     -23	 75	 387	 159	 160
Si       1.8123724246     1.6659747533     -8.2024713806      -23	 76	 469	 1198	 479
Si       -5.4795659917     -6.9254962946     -2.0859523244    -23	 701	 711	 79	 1199
Si       -4.2348187807     -4.8253259867     2.2862185389     -22	 718	 86	 185	 80
Si       -8.8788033514     -2.6345931103     1.4509809850     -2	 106	 147	 143	 155
Si       -11.7694485360     -3.1728145211     -2.3688552850   -2	 153	 107	 148	 152
Si       -8.4505240888     -6.7662000065     -1.4710851212    -2	 108	 701	 695	 696
O       -11.8063510504     -3.7668021768     4.1903402350     -1	 233	 225	 0	 0
O       -8.8503040231     9.0655584039     2.3673408111       -1	 226	 253	 0	 0
O       -13.4936172465     8.4725182371     4.2164475334      -1	 257	 230	 0	 0
O       -14.7706741758     8.0926629504     -3.9304093182     -1	 228	 255	 0	 0
O       -17.8767561736     7.7101754559     -2.4965251039     -1	 229	 256	 0	 0
O       -14.7501897614     -3.5095340003     0.0044537424     -1	 231	 232	 0	 0
O       -16.8809603187     -2.2472292017     -0.9136428907    -1	 231	 263	 0	 0
O       -3.5874867800     -2.5938428011     -8.5175919496     -1	 98	 95	 0	 0
O       0.3350451556     -6.3461969701     -5.0785337349      -1	 100	 96	 0	 0
O       -2.5676903177     -6.4039652045     -4.9218920948     -1	 99	 100	 0	 0
O       -7.9693735082     -4.6319217052     4.3063080844      -1	 221	 222	 0	 0
O       -7.8205687131     -4.7376589151     6.9323895331      -1	 637	 222	 0	 0
O       -14.4246181322     -5.9462849363     -3.5500128829    -1	 223	 224	 0	 0
O       -10.1289655129     -5.1900893772     5.7244707066     -1	 225	 222	 0	 0
O       -9.8846989674     10.5742161672     4.2777881023      -1	 226	 227	 0	 0
O       -10.1981168629     11.0377428850     6.8280159754     -1	 227	 639	 0	 0
O       -16.7636425506     9.8536283212     -3.6225099512     -1	 228	 229	 0	 0
O       -12.3421348995     10.6122708318     5.3180791587     -1	 227	 230	 0	 0
O       -7.5686997259     -3.3994920774     2.0154631021      -1	 122	 221	 0	 0
O       -11.5374531433     -6.3744888323     3.7938175720     -1	 225	 730	 0	 0
O       1.7141807792     12.7687809965     -0.0269240639      -1	 242	 495	 0	 0
O       -12.8006078481     -3.6677191621     1.7391233991     -1	 233	 232	 0	 0
O       -10.2034150932     -3.2972254967     2.1314220581     -1	 233	 122	 0	 0
O       -12.2229831982     -3.5710283956     -0.8523253577    -1	 123	 232	 0	 0
O       -13.3572374883     -5.7450416888     0.1805029952     -1	 729	 232	 0	 0
O       -16.0208592670     -7.0823884773     -1.7902921710    -1	 224	 728	 0	 0
O       -16.0640759835     -4.4308414551     -2.1192309256    -1	 231	 224	 0	 0
O       -12.4693917771     -4.1392647059     -3.4678618816    -1	 123	 223	 0	 0
O       -12.2431694657     -1.6615124987     -2.7101010584    -1	 123	 112	 0	 0
O       -11.9652044849     -1.4728716463     2.9733318917     -1	 233	 265	 0	 0
O       -8.7740465231     -1.0591399850     1.8384993158      -1	 122	 111	 0	 0
O       -6.4069977918     5.5225917232     -3.7457224765      -1	 115	 109	 0	 0
O       -6.4595193834     5.3174172061     -6.3730050841      -1	 115	 317	 0	 0
O       0.0949601389     6.3834469019     4.0470586335        -1	 234	 235	 0	 0
O       -2.3241399064     6.1242277097     -7.9208966798      -1	 318	 118	 0	 0
O       -1.5729660499     6.0256603103     -5.3632119249      -1	 116	 118	 0	 0
O       -4.1447886204     5.5515881923     -5.1257202554      -1	 115	 116	 0	 0
O       -7.1596912875     6.6947169997     -1.5114091956      -1	 109	 239	 0	 0
O       -2.9864098448     7.5083584196     -3.7057509282      -1	 116	 238	 0	 0
O       -0.2016936034     8.6357864904     0.4434021661       -1	 236	 237	 0	 0
O       -2.0621238656     7.9294424019     -1.2570599088      -1	 237	 238	 0	 0
O       -4.6498685722     7.5236143567     -1.6330731147      -1	 238	 239	 0	 0
O       -6.0203856596     7.7809091883     0.6341075757       -1	 239	 240	 0	 0
O       -4.7136334458     7.6876946432     2.9400344393       -1	 241	 240	 0	 0
O       -2.6472152951     8.0409438799     1.3332768337       -1	 241	 237	 0	 0
O       -5.4474053228     5.4388675397     1.7202219574       -1	 110	 240	 0	 0
O       1.3725014615     8.1675636223     2.5418125748        -1	 235	 236	 0	 0
O       -2.2657800876     7.5863682634     3.9571543444       -1	 241	 234	 0	 0
O       -6.7320834317     3.4375733581     2.9589478169       -1	 110	 248	 0	 0
O       -7.2565859249     7.0067481765     2.8697948597       -1	 253	 240	 0	 0
O       1.4685531842     10.4879611717     1.3166275769       -1	 242	 236	 0	 0
O       -3.2167823094     9.8744316673     3.1801674502       -1	 241	 247	 0	 0
O       -3.4946612529     9.7721594026     -2.5071973769      -1	 244	 238	 0	 0
O       -6.6431206111     9.2878723629     -1.4334284386      -1	 245	 239	 0	 0
O       -0.6634896122     11.6803647802     0.2974655935      -1	 242	 243	 0	 0
O       -2.6735455011     12.0352693270     -1.3697623711     -1	 243	 244	 0	 0
O       -5.2659632181     11.5721398280     -1.6718789846     -1	 244	 245	 0	 0
O       -6.5731681037     11.0088976488     0.5690609152      -1	 245	 246	 0	 0
O       -5.2679848566     11.5209819041     2.8212392845      -1	 246	 247	 0	 0
O       -3.1789469189     11.6530021828     1.1991489231      -1	 243	 247	 0	 0
O       -5.6021300753     -4.7503745684     3.1600526814      -1	 121	 221	 0	 0
O       -7.9010760181     11.5092745984     2.8116541640      -1	 226	 246	 0	 0
O       -8.9630569013     2.7244563685     4.1637530033       -1	 249	 248	 0	 0
O       -8.9177996216     2.9657504407     6.7856870126       -1	 249	 664	 0	 0
O       -15.5057353997     1.8272265094     -3.6684833726     -1	 250	 251	 0	 0
O       -11.2279981335     2.7010015610     5.5420697618      -1	 249	 252	 0	 0
O       -9.3999744900     7.3949278030     4.3492701169       -1	 253	 254	 0	 0
O       -9.6466844621     6.9974595057     6.9205606766       -1	 666	 254	 0	 0
O       -16.1836990126     5.8782008748     -3.4844479675     -1	 255	 256	 0	 0
O       -11.7835317580     6.7824860935     5.3689357006      -1	 257	 254	 0	 0
O       -9.8625126247     4.9535439635     5.2435834970       -1	 249	 254	 0	 0
O       -8.2450720965     1.5295211523     1.9261210744       -1	 111	 248	 0	 0
O       -9.0371322593     4.0590933847     1.8339092583       -1	 261	 248	 0	 0
O       -9.6869590012     6.6467692133     1.8079667870       -1	 253	 261	 0	 0
O       -12.4470427075     0.8368045699     4.0636551024      -1	 265	 252	 0	 0
O       -12.9101550990     3.4121048116     3.5982793640      -1	 260	 252	 0	 0
O       -13.3474414801     6.0273246928     3.3236585458      -1	 257	 260	 0	 0
O       2.3829783519     8.3219840233     0.0707308697        -1	 236	 550	 0	 0
O       -15.9077256727     4.2518919231     -0.4930683678     -1	 258	 259	 0	 0
O       -14.1603717588     4.3361803384     1.4755102470      -1	 259	 260	 0	 0
O       -11.5707109335     4.7847606273     1.7835192313      -1	 260	 261	 0	 0
O       -10.0351577929     5.1928443164     -0.3394549219     -1	 113	 261	 0	 0
O       -11.2666887404     4.7189915358     -2.6441946182     -1	 113	 262	 0	 0
O       -13.3119850311     4.3129487607     -1.0292694347     -1	 259	 262	 0	 0
O       -15.2114372042     -0.3869929787     -0.0388401903    -1	 263	 264	 0	 0
O       -13.3630158099     0.3522967767     1.6487622531      -1	 265	 264	 0	 0
O       -10.7588679935     0.7179306998     2.0107622318      -1	 265	 111	 0	 0
O       -12.7762737219     0.2535416196     -0.9349558316     -1	 112	 264	 0	 0
O       -14.4277977134     2.1264215952     -0.0153172601     -1	 259	 264	 0	 0
O       -18.0400297465     5.2006566966     -1.7278435462     -1	 258	 256	 0	 0
O       -17.4132910940     2.6486925027     -2.0433723318     -1	 258	 251	 0	 0
O       -16.7737770516     0.0595965618     -2.1493109869     -1	 251	 263	 0	 0
O       -13.5508173404     5.9154048537     -3.1513294240     -1	 262	 255	 0	 0
O       -13.3223250546     3.2920850804     -3.4902934960     -1	 250	 262	 0	 0
O       -13.1331268447     0.6340244112     -3.5670171330     -1	 250	 112	 0	 0
O       -8.6708013702     4.8046309088     -2.5933550754      -1	 113	 109	 0	 0
Si       -7.1983372283     -4.7241585018     2.8871324686     -2	 185	 143	 686	 135
Si       -8.5151322247     -5.3939712023     5.6239753365     -2	 138	 685	 135	 136
Si       -12.8916693056     -5.6263419164     -3.9569641807   -2	 137	 267	 700	 152
Si       -15.8792514502     -5.8671416871     -2.8517870909   -2	 137	 1222	 150	 151
Si       -11.5342044491     -5.1984646575     4.9069822437    -2	 138	 1205	 125	 144
Si       -9.2338360681     10.5795052496     2.7906635239     -2	 186	 139	 126	 1435
Si       -10.8550159552     11.2713991414     5.3679100422    -2	 1210	 139	 140	 142
Si       -15.2291462689     9.6284155534     -4.1182743820    -2	 1434	 141	 269	 128
Si       -18.1536906828     9.2006069526     -3.0782735298    -2	 129	 1209	 141	 1223
Si       -13.6908525943     10.0328536873     4.6035398999    -2	 1207	 142	 127	 1208
Si       -16.2205319933     -3.7090317711     -0.6674505369   -2	 130	 131	 1214	 151
Si       -13.2764976731     -4.1257751136     0.2595272989    -2	 146	 130	 148	 149
Si       -11.6875820544     -3.0484927125     2.7430906231    -2	 146	 147	 154	 125
Si       -1.4545989420     6.3005499245     4.5117184509      -23	 585	 172	 85	 158
Si       1.5188108083     6.8065568020     3.4127327837       -23	 586	 171	 84	 158
Si       1.2590453746     8.8969489052     1.0962473479       -2	 202	 171	 164	 175
Si       -1.4963594492     7.6903184930     0.2373618460      -23	 169	 83	 164	 165
Si       -3.3055660730     8.1914421161     -2.2689016092     -2	 177	 163	 165	 166
Si       -6.1157569298     7.8207040700     -0.9862833303     -2	 162	 178	 166	 167
Si       -5.8633327249     6.9786812430     2.0357836080      -2	 170	 174	 167	 168
Si       -3.2071088107     8.2924221078     2.8444247259      -2	 169	 176	 172	 168
Si       0.7782062559     11.9235646765     1.0029482895      -2	 145	 179	 1423	 175
Si       -2.1447091176     12.3207417254     0.1324075890     -2	 179	 180	 1215	 184
Si       -3.7921445100     11.3493892985     -2.3297951018    -2	 177	 180	 181	 1432
Si       -6.5973314415     10.8666431023     -1.0468093695    -2	 178	 1213	 181	 182
Si       -6.5818982237     11.8812437569     1.9367410871     -2	 186	 182	 183	 1216
Si       -3.6506445954     11.3692097811     2.7375153211     -2	 1217	 184	 183	 176
Si       -8.2583393065     2.9488755972     2.7225593586      -2	 173	 187	 196	 197
Si       -9.7362179429     3.3475948699     5.4412781153      -2	 195	 187	 188	 190
Si       -13.9476008841     1.9302073871     -4.0987179249    -2	 305	 218	 219	 189
Si       -16.9193627142     1.4328163838     -2.9948280686    -2	 1240	 189	 215	 216
Si       -12.5846867806     2.3072007179     4.7361573529     -2	 1219	 190	 199	 200
Si       -8.7975481877     7.5230707246     2.8485503090      -2	 126	 198	 191	 174
Si       -10.1792035842     6.5278764370     5.4688258089     -2	 194	 195	 191	 192
Si       -14.7779835690     6.4836940482     -4.0448586282    -2	 193	 307	 217	 128
Si       -17.7044395661     6.1733390899     -2.9821864788    -2	 193	 129	 214	 1241
Si       -13.2449239235     6.9395406472     4.6616006982     -2	 201	 194	 1221	 127
Si       -17.4038991620     3.8946210539     -1.0006394624    -2	 203	 1211	 214	 215
Si       -14.4459550019     3.7513246659     -0.0092079261    -2	 203	 204	 213	 208
Si       -12.9850704303     4.6489125990     2.5516790630     -2	 201	 204	 205	 200
Si       -10.0829075957     5.1681957488     1.2773377069     -2	 198	 197	 205	 206
Si       -12.8770140172     4.5569547794     -2.5802134311    -2	 217	 218	 207	 208
Si       -16.6703564404     -0.6581702516     -0.6967243359   -2	 209	 131	 1212	 216
Si       -13.9364499795     0.5889498038     0.1533062698     -2	 209	 210	 212	 213
Si       -12.1151795467     0.1001317554     2.6567347042     -2	 210	 154	 199	 211
O       -12.8924137045     -5.6035125973     -8.1975159453    -1	 313	 312	 0	 0
O       -12.7436089094     -5.7092498072     -5.5714344965    -1	 313	 223	 0	 0
O       -14.8075575608     9.6016425013     -8.2260016325     -1	 314	 315	 0	 0
O       -15.1209754563     10.0651692191     -5.6757737594    -1	 315	 228	 0	 0
O       -17.2651750958     9.6406799397     -7.1857448709     -1	 315	 316	 0	 0
O       -0.8954061316     -4.4105401347     -12.2292959492    -1	 327	 1080	 0	 0
O       -3.2088594171     11.7971901043     -12.5307480935    -1	 331	 1084	 0	 0
O       -13.7731626165     8.0929847381     -10.1364489237    -1	 337	 314	 0	 0
O       -18.4166574428     7.5009273449     -8.2873764962     -1	 339	 316	 0	 0
O       -4.8280800574     5.4118560098     -8.4567653961      -1	 317	 318	 0	 0
O       -4.1621491573     1.3896934158     -8.6262030050      -1	 114	 117	 0	 0
O       -4.4389798640     3.0770549561     -11.6130168245     -1	 319	 320	 0	 0
O       -9.0689480138     2.5451237663     -9.4538688115      -1	 321	 322	 0	 0
O       -7.0298397039     2.9873945547     -11.0475751366     -1	 322	 320	 0	 0
O       -5.1245521968     7.6632128245     -12.0603875688     -1	 323	 324	 0	 0
O       -9.6374053330     6.7149653481     -9.5633788995      -1	 325	 326	 0	 0
O       -7.5700738885     7.0683702140     -11.1705129012     -1	 324	 326	 0	 0
O       -5.9552691224     5.1756041578     -12.0865124774     -1	 324	 320	 0	 0
O       -10.3704455191     4.4672766476     -10.7836020722    -1	 321	 325	 0	 0
O       -2.3335642323     2.0455764615     -10.4192349630     -1	 117	 319	 0	 0
O       -2.8787243426     4.6171118486     -10.0331660480     -1	 318	 319	 0	 0
O       -3.5503571319     7.1949899564     -9.9619771600      -1	 323	 318	 0	 0
O       -6.7870064798     1.3342206407     -8.9713157512      -1	 322	 114	 0	 0
O       -7.0181156762     3.9515757182     -8.5561507988      -1	 322	 317	 0	 0
O       -7.1886386810     6.6137945976     -8.5466353905      -1	 317	 326	 0	 0
O       -11.6551236280     2.4659824659     -9.5448762127     -1	 321	 335	 0	 0
O       -12.1794445183     6.0341745106     -9.6339948751     -1	 337	 325	 0	 0
O       -3.4543054092     9.5153875058     -11.1871621579     -1	 323	 331	 0	 0
O       -8.1398225057     8.9028407752     -9.3236565795      -1	 334	 326	 0	 0
O       -3.4072386095     -4.3671887756     -11.4489855861    -1	 327	 328	 0	 0
O       -8.0232407650     -5.0358077445     -9.3443481411     -1	 329	 330	 0	 0
O       -5.9199545380     -5.0458331039     -10.9135516140    -1	 330	 328	 0	 0
O       -5.5874431023     10.7086182588     -12.2059820401    -1	 331	 332	 0	 0
O       -10.1908434500     10.5484082382     -9.6825504504    -1	 333	 334	 0	 0
O       -8.1018055123     10.6804285169     -11.3046408118    -1	 332	 334	 0	 0
O       -5.6851891096     -5.8173540497     -8.3727742480     -1	 330	 815	 0	 0
O       -10.5251702716     -5.7219654605     -9.3437713482    -1	 329	 312	 0	 0
O       -12.8241162144     10.5376837062     -9.6921698656    -1	 314	 333	 0	 0
O       -13.8859154947     1.7518827026     -8.3400367316     -1	 335	 336	 0	 0
O       -13.8406582151     1.9931767749     -5.7181027223     -1	 250	 336	 0	 0
O       -14.3230146863     6.4233369109     -8.1545539127     -1	 337	 338	 0	 0
O       -14.5695430555     6.0248858398     -5.5832290583     -1	 338	 255	 0	 0
O       -16.7063903514     5.8099124276     -7.1348540342     -1	 338	 339	 0	 0
O       -14.7853712181     3.9809702976     -7.2602062378     -1	 338	 336	 0	 0
O       -2.0252116974     3.7717263121     -12.3898829294     -1	 1110	 319	 0	 0
O       -2.5398802415     7.3494103574     -12.4330588652     -1	 1114	 323	 0	 0
Si       -12.1213774246     -5.6957493940     -9.6166915611   -2	 266	 1226	 302	 1312
Si       -13.4381724210     -6.3655620944     -6.8798486932   -2	 794	 267	 1430	 266
Si       -14.1566946615     9.6069315837     -9.7131262110    -2	 273	 1227	 268	 303
Si       -15.7775099737     10.2989251513     -7.1349538688   -2	 1225	 268	 269	 270
Si       -18.6137111877     9.0602800215     -7.9002498350    -2	 274	 1228	 270	 1224
Si       -6.3776391383     5.3289590323     -7.9921055787     -2	 289	 290	 275	 157
Si       -3.4042293880     5.8349659099     -9.0910912459     -2	 275	 286	 159	 287
Si       -2.9368263829     3.3940076388     -11.0969791166    -2	 286	 310	 285	 277
Si       -5.9161181909     3.5591594889     -12.0780368056    -2	 283	 1229	 277	 279
Si       -10.3413915647     2.8854570369     -10.4000768619   -2	 1230	 291	 284	 278
Si       -7.4584509042     2.7088043338     -9.5008127347     -2	 289	 278	 279	 288
Si       -3.6647265126     7.9242196100     -11.4071659910    -2	 311	 293	 287	 280
Si       -6.4193996455     6.7187276009     -12.2664621836    -2	 282	 283	 1231	 280
Si       -10.7861913183     6.0061075771     -10.4680061269   -2	 284	 281	 292	 1232
Si       -8.1301490070     7.3208312157     -9.6593993038     -2	 281	 290	 294	 282
Si       -1.8702535556     -4.2819241039     -10.9336013800   -2	 1194	 806	 295	 271
Si       -4.6395270442     -5.3439662891     -11.8619987855   -2	 297	 804	 295	 1233
Si       -9.1578589770     -5.7969168788     -10.2176054907   -2	 1234	 805	 302	 296
Si       -6.4216152074     -4.7890495867     -9.3837814358    -2	 297	 1195	 301	 296
Si       -4.1442877627     10.9510906865     -11.4999156215   -2	 298	 1436	 293	 272
Si       -7.0675677111     11.3481680595     -12.3713821458   -2	 298	 1235	 300	 1237
Si       -11.5047568172     10.9086700911     -10.5670486477  -2	 299	 1236	 1238	 303
Si       -8.5736847917     10.3976188890     -9.7663087085    -2	 299	 300	 294	 1239
Si       -13.1811978999     1.9763019314     -9.7812303762    -2	 1243	 291	 1244	 304
Si       -14.6590765364     2.3750212040     -7.0625116196    -2	 305	 1429	 309	 304
Si       -13.7204067812     6.5504970587     -9.6552394259    -2	 273	 306	 292	 1245
Si       -15.1031570743     5.5561299156     -7.0346218247    -2	 306	 307	 308	 309
Si       -18.1677825169     5.9669669813     -7.8421890367    -2	 1242	 308	 1246	 274
O       10.5830169172     -2.1947966555     -3.1882686212     -1	 485	 486	 0	 0
O       10.7318217123     -2.3005338654     -0.5621871725     -1	 977	 486	 0	 0
O       4.1281368681     -3.5090602108     -11.0436637645     -1	 487	 488	 0	 0
O       6.4358940689     -2.5738149406     1.0292892291       -1	 489	 978	 0	 0
O       5.8112896374     -2.9983474333     -1.5305596857      -1	 489	 490	 0	 0
O       8.4234249125     -2.7529643275     -1.7701059990      -1	 490	 486	 0	 0
O       8.6676914580     13.0113412169     -3.2167886032      -1	 491	 492	 0	 0
O       8.3546381374     13.4749676105     -0.6656349062      -1	 979	 492	 0	 0
O       1.7891124497     12.2908530467     -11.1161608329     -1	 493	 494	 0	 0
O       4.2586617736     12.5056545970     0.7114166211       -1	 980	 495	 0	 0
O       3.6174375932     12.6395155216     -1.8544800649      -1	 495	 496	 0	 0
O       6.2109872168     13.0505342846     -2.1769082377      -1	 492	 496	 0	 0
O       10.9840552744     -0.9622673519     -5.4781877796     -1	 499	 485	 0	 0
O       6.7460393750     -1.3296771270     -3.3042364706      -1	 490	 498	 0	 0
O       7.0149372821     -3.9373637826     -3.7007591335      -1	 490	 880	 0	 0
O       9.7029996961     11.5028390829     -5.1276122905      -1	 546	 491	 0	 0
O       5.0600510476     10.9098985919     -3.2775797443      -1	 551	 496	 0	 0
O       3.7817162496     10.5297880001     -11.4249860238     -1	 548	 493	 0	 0
O       0.6754526490     10.1482832793     -9.9911361043      -1	 549	 494	 0	 0
O       5.7526958711     -1.2304384831     -5.7558297025      -1	 497	 498	 0	 0
O       8.3493399071     -0.8600007712     -5.3622288235      -1	 498	 499	 0	 0
O       9.5740234380     -0.3320715985     -7.6532807736      -1	 499	 500	 0	 0
O       8.4026979291     -0.8549864116     -9.9624047743      -1	 500	 501	 0	 0
O       6.3294072272     -1.1339033459     -8.3469020633      -1	 497	 501	 0	 0
O       5.1958846281     -3.3067782361     -7.3144844012      -1	 497	 879	 0	 0
O       9.6793693573     -2.7874897817     -8.6520243758      -1	 882	 500	 0	 0
O       2.5318957333     -4.6451637518     -9.2839430527      -1	 878	 488	 0	 0
O       6.0833632232     -1.7020399804     -10.9615127633     -1	 501	 487	 0	 0
O       11.0450061157     -0.8335228867     -9.8095232385     -1	 524	 500	 0	 0
O       6.3092209597     0.7756125510     -10.2046777640      -1	 562	 501	 0	 0
O       6.5871859405     0.9642534034     -4.5212448139       -1	 498	 559	 0	 0
O       9.7787084772     1.3780847406     -5.6551515659       -1	 499	 560	 0	 0
O       12.1453926336     7.9597167729     -11.2402991821     -1	 502	 503	 0	 0
O       12.0932356169     7.7546419316     -13.8666559657     -1	 1086	 503	 0	 0
O       18.6473505643     8.8205719516     -3.4475180720      -1	 505	 504	 0	 0
O       14.4076018050     7.9887132421     -12.6202969610     -1	 506	 503	 0	 0
O       12.5576874463     3.2874897103     -11.4623763378     -1	 507	 508	 0	 0
O       12.7697143470     3.6950045208     -14.0286517073     -1	 508	 1088	 0	 0
O       19.3132814644     4.7984093576     -3.6169556810      -1	 509	 510	 0	 0
O       14.9294588960     3.9596847166     -12.5151574468     -1	 508	 511	 0	 0
O       12.9939425846     5.7404641245     -12.3519082245     -1	 508	 503	 0	 0
O       11.3926991379     9.1318420494     -9.0059859011      -1	 521	 502	 0	 0
O       12.1409295999     6.5901078041     -8.9135672779      -1	 515	 502	 0	 0
O       12.8484985206     4.0228967033     -8.9276877033      -1	 507	 515	 0	 0
O       15.5659805806     9.9454834693     -11.2003276338     -1	 506	 520	 0	 0
O       16.0542416301     7.4243669765     -10.5983917755     -1	 506	 514	 0	 0
O       16.4918065381     4.7894074355     -10.4826931654     -1	 514	 511	 0	 0
O       0.2412532292     5.9433970105     -7.2093720363       -1	 118	 552	 0	 0
O       12.0850296110     1.5844027118     -9.4770357508      -1	 507	 524	 0	 0
O       16.6034998176     2.3124701099     -11.1986282856     -1	 563	 511	 0	 0
O       17.9142975420     2.5747385388     -3.1593302069      -1	 509	 526	 0	 0
O       21.0074425145     2.9704900096     -4.6111504272      -1	 510	 527	 0	 0
O       19.0366337297     6.4868533475     -6.6028779713      -1	 513	 512	 0	 0
O       17.2853734807     6.3499744155     -8.5415738470      -1	 513	 514	 0	 0
O       14.6914034428     5.9385051065     -8.9004867197      -1	 514	 515	 0	 0
O       13.2012180298     5.4404222778     -6.7684062965      -1	 515	 516	 0	 0
O       14.4063010051     5.9548224819     -4.4446557822      -1	 516	 517	 0	 0
O       16.4463226087     6.3972488995     -6.0387385033      -1	 513	 517	 0	 0
O       18.3510613969     11.0730112159     -7.0502487156     -1	 518	 519	 0	 0
O       16.4911798536     10.3667230809     -8.7520130105     -1	 519	 520	 0	 0
O       13.9034351470     9.9608950357     -9.1280262163      -1	 521	 520	 0	 0
O       12.5320047658     10.2180342380     -6.8604691299     -1	 521	 522	 0	 0
O       13.8391215545     10.1249193688     -4.5536164424     -1	 522	 523	 0	 0
O       15.9060884241     10.4782245588     -6.1616762680     -1	 523	 519	 0	 0
O       17.5212577652     8.5855581784     -7.0767500203      -1	 513	 519	 0	 0
O       13.1049851026     7.8759925894     -5.7743547482      -1	 522	 516	 0	 0
O       21.1427796832     5.4544480326     -5.4103640350      -1	 510	 512	 0	 0
O       20.5967062791     8.0258277904     -5.0239187240      -1	 505	 512	 0	 0
O       19.9252564618     10.6047883478     -4.9518383068     -1	 505	 518	 0	 0
O       16.6887887167     4.7430362583     -3.9611426032      -1	 509	 517	 0	 0
O       16.4573149455     7.3602916600     -3.5469034747      -1	 517	 504	 0	 0
O       16.2869749127     10.0235929890     -3.5364965373     -1	 523	 504	 0	 0
O       11.8203069937     5.8746984078     -4.5356288886      -1	 540	 516	 0	 0
O       11.2958045005     9.4438732262     -4.6247818459      -1	 546	 522	 0	 0
O       20.0209436096     12.9250862214     -6.1779491286     -1	 534	 518	 0	 0
O       15.3356081160     12.3115567170     -4.3144092554     -1	 523	 539	 0	 0
O       15.0575475696     12.2102672261     -10.0018083773    -1	 536	 520	 0	 0
O       11.9096343892     11.7250970885     -8.9270793203     -1	 521	 537	 0	 0
O       12.8864822174     0.0380020048     -11.4688300607     -1	 524	 525	 0	 0
O       13.2677674953     -0.4578498698     -13.9926173844    -1	 1098	 525	 0	 0
O       19.8888571354     0.8150287700     -3.5087210216      -1	 526	 527	 0	 0
O       15.3885802224     -0.0114018724     -12.4293558701    -1	 563	 525	 0	 0
O       13.9512009720     -2.2511154415     -12.1698274151    -1	 890	 525	 0	 0
O       13.5147600785     -3.1755311301     -8.7358511512     -1	 889	 531	 0	 0
O       13.5607332114     -0.5235402153     -8.9411817600     -1	 531	 524	 0	 0
O       17.1354894275     -0.1117219975     -10.0918484152    -1	 530	 563	 0	 0
O       20.0683749842     -0.9573903842     -6.4388467329     -1	 529	 528	 0	 0
O       18.4431348498     -1.6269993474     -8.3903349706     -1	 529	 530	 0	 0
O       15.8247278127     -1.9133641278     -8.6213193867     -1	 530	 531	 0	 0
O       14.0923699960     -1.6596858822     -6.6411495095     -1	 531	 532	 0	 0
O       15.4520082539     -1.6261090289     -4.3351351118     -1	 532	 533	 0	 0
O       17.5558406586     -1.6370174862     -5.9033784661     -1	 529	 533	 0	 0
O       17.8889008132     14.1174898299     -7.1971111121     -1	 534	 535	 0	 0
O       15.8788449243     14.4723943767     -8.8643390767     -1	 535	 536	 0	 0
O       13.2864272073     14.0092648777     -9.1664556901     -1	 537	 536	 0	 0
O       11.9795868966     13.4461223743     -6.9245899664     -1	 537	 538	 0	 0
O       13.2847701437     13.9582066296     -4.6724115972     -1	 538	 539	 0	 0
O       15.3734435065     14.0901272325     -6.2954277825     -1	 539	 535	 0	 0
O       21.8562259089     0.5854048357     -5.2567481834      -1	 527	 528	 0	 0
O       17.3571534319     0.1555207513     -3.9572592372      -1	 533	 526	 0	 0
O       17.7906060870     -2.4085384320     -3.3626011000     -1	 891	 533	 0	 0
O       12.9506249250     -2.3131498428     -4.3335982003     -1	 532	 485	 0	 0
O       10.6525922760     13.9466549532     -4.6823731137     -1	 538	 491	 0	 0
O       9.5896980990     5.1616810940     -3.3298978784       -1	 540	 541	 0	 0
O       9.6349553787     5.4029751663     -0.7079638691       -1	 1003	 541	 0	 0
O       3.0470196006     4.2644512349     -11.1621342542      -1	 542	 543	 0	 0
O       5.4474970379     4.5670158023     0.8635737813        -1	 1004	 544	 0	 0
O       4.7403315497     4.6694405989     -1.6999747619       -1	 545	 544	 0	 0
O       7.3247568668     5.1382262865     -1.9515811199       -1	 545	 541	 0	 0
O       9.1524159354     9.8320528528     -3.1453065886       -1	 546	 547	 0	 0
O       8.9060705382     9.4346842312     -0.5730902051       -1	 547	 1005	 0	 0
O       2.3690559877     8.3154256003     -10.9780988491      -1	 548	 549	 0	 0
O       4.7455398770     9.3019910383     0.8019567518        -1	 1006	 550	 0	 0
O       4.1726440716     8.9153299850     -1.7628893695       -1	 550	 551	 0	 0
O       6.7688586674     9.2196111432     -2.1256410050       -1	 547	 551	 0	 0
O       8.6898778007     7.3906690132     -2.2509932085       -1	 547	 541	 0	 0
O       4.5691293834     6.8368936271     -0.1485205445       -1	 550	 544	 0	 0
O       10.3073183289     3.9666462020     -5.5684556312      -1	 540	 560	 0	 0
O       9.5163544319     6.4974565133     -5.6601523142       -1	 555	 540	 0	 0
O       8.8657959991     9.0839939388     -5.6856840947       -1	 546	 555	 0	 0
O       6.1057122928     3.2740292954     -3.4299957793       -1	 545	 559	 0	 0
O       5.6431486202     5.8493854906     -3.8966737376       -1	 545	 554	 0	 0
O       5.2049489453     8.4644497425     -4.1709181598       -1	 554	 551	 0	 0
O       2.6450293276     6.6891166486     -7.9867192495       -1	 553	 552	 0	 0
O       4.3920186666     6.7733053881     -6.0190664586       -1	 553	 554	 0	 0
O       6.9820440668     7.2219853528     -5.7101316504       -1	 554	 555	 0	 0
O       8.5175972074     7.6300690419     -7.8331058035       -1	 555	 556	 0	 0
O       7.2860662599     7.1562162613     -10.1378454998      -1	 556	 557	 0	 0
O       5.2407699692     6.7501734863     -8.5229203164       -1	 553	 557	 0	 0
O       3.3413177961     2.0502317469     -7.5324910719       -1	 558	 119	 0	 0
O       5.1906524842     2.7896771315     -5.8452650247       -1	 558	 559	 0	 0
O       7.7938870068     3.1551554253     -5.4828886499       -1	 559	 560	 0	 0
O       9.1822815501     2.8967396076     -7.7310656574       -1	 561	 560	 0	 0
O       7.8672502492     2.9307237872     -10.0284356218      -1	 561	 562	 0	 0
O       5.7761167035     2.6906666693     -8.4295325372       -1	 562	 558	 0	 0
O       4.1245927120     4.5635466449     -7.5098939657       -1	 553	 558	 0	 0
O       8.6084035385     5.2100936391     -8.8763848937       -1	 561	 556	 0	 0
O       0.5127252537     7.6378814221     -9.2214944279       -1	 549	 552	 0	 0
O       1.1390993314     5.0858175524     -9.5379490373       -1	 543	 552	 0	 0
O       1.7789779487     2.4968212874     -9.6429618686       -1	 119	 543	 0	 0
O       5.0019376599     8.3526295793     -10.6449803057      -1	 548	 557	 0	 0
O       5.2300653708     5.7292101301     -10.9848702016      -1	 557	 542	 0	 0
O       5.4196281556     3.0712491368     -11.0606680146      -1	 562	 542	 0	 0
O       9.8819536301     7.2418556343     -10.0870059571      -1	 556	 502	 0	 0
O       10.4180597471     3.6043361071     -9.9767021911      -1	 561	 507	 0	 0
Si       11.3540531971     -2.2870334521     -4.6074442370    -2	 441	 340	 829	 352
Si       10.0376227755     -2.9567464768     -1.8696755452    -2	 345	 827	 340	 341
Si       5.6607211198     -3.1892168667     -11.4515408863    -2	 842	 1021	 342	 367
Si       2.6735035501     -3.4299169616     -10.3454379726    -2	 1022	 1197	 342	 366
Si       5.6260091917     -3.5258096191     -0.0063780040     -23	 81	 828	 343	 344
Si       7.0181859763     -2.7613396078     -2.5875944618     -2	 345	 354	 353	 344
Si       9.3185543573     13.0166302993     -4.7039131817     -2	 346	 355	 442	 1437
Si       7.6986523389     13.7087794962     -2.1261172356     -2	 346	 347	 1247	 351
Si       3.3232441565     12.0655406031     -11.6128510875    -2	 1433	 1026	 348	 357
Si       0.3999776113     11.6379873074     -10.5723008076    -2	 1027	 348	 358	 1252
Si       3.2473478037     13.1776685688     -0.3646885206     -2	 145	 349	 350	 1248
Si       4.8619024060     12.4700784129     -2.8901109818     -2	 1249	 356	 350	 351
Si       5.2762573272     -1.6885503881     -7.2341235827     -2	 364	 363	 1196	 359
Si       6.8648083710     -0.6113676628     -4.7514860825     -2	 353	 370	 359	 360
Si       9.6735870740     -0.1974680606     -6.0435957205     -2	 361	 371	 352	 360
Si       9.6859088438     -1.2026083534     -9.0196520315     -2	 361	 362	 365	 368
Si       6.7829418894     -0.7356894714     -9.8634319906     -2	 369	 362	 363	 367
Si       11.4087253863     7.7215930754     -9.8185325095     -2	 483	 372	 381	 382
Si       12.9158370584     7.3509456369     -12.5291025388    -2	 372	 380	 373	 375
Si       17.0977914834     8.7376749742     -2.9828582546     -2	 410	 411	 374	 923
Si       20.0721145274     9.2438374810     -4.0822203179     -2	 1343	 374	 407	 408
Si       15.7422650796     8.4527999528     -11.8121982861    -2	 385	 1254	 375	 384
Si       11.9736665844     3.1241120110     -9.9607903894     -2	 388	 376	 383	 484
Si       13.3215942415     4.1668730302     -12.5847868619    -2	 377	 379	 380	 376
Si       17.9112060960     4.1824606537     -3.0546925260     -2	 409	 378	 390	 926
Si       20.8322018817     4.5069032102     -4.1221318204     -2	 1345	 378	 406	 391
Si       16.3698069903     3.7817735233     -11.7692070633    -2	 386	 379	 389	 1256
Si       20.5386042388     6.8027235806     -6.0877317926     -2	 1263	 406	 407	 392
Si       17.5591308279     6.9688582045     -7.0688237763     -2	 393	 404	 397	 392
Si       16.1145526286     6.1195536826     -9.6445705913     -2	 385	 386	 394	 393
Si       13.2214359059     5.5026926567     -8.3859685480     -2	 394	 395	 382	 383
Si       13.1351353228     6.2954110576     -5.3903144047     -2	 395	 396	 405	 412
Si       16.0169797175     6.1175202757     -4.4915654106     -2	 409	 410	 396	 397
Si       19.8114358000     11.3340739549     -6.3983293577    -2	 1264	 398	 414	 408
Si       17.0560309762     10.1274435427     -7.2572148596    -2	 403	 404	 398	 399
Si       15.2471889273     10.6286668416     -9.7625524909    -2	 416	 384	 399	 400
Si       12.4366334956     10.2578291197     -8.4808600359    -2	 417	 381	 401	 400
Si       12.6890577005     9.4158062927     -5.4587930976     -2	 401	 402	 405	 413
Si       15.3452816147     10.7295471575     -4.6501519797    -2	 402	 403	 415	 411
Si       12.4048484556     0.0546426156     -9.9286527951     -2	 418	 388	 424	 368
Si       13.9345507789     -0.6535155134     -12.5167312070   -2	 418	 419	 421	 422
Si       18.3499601494     1.0232721235     -3.0093967061     -2	 420	 390	 439	 944
Si       21.2829060185     1.4749645526     -4.0217936039     -2	 1351	 420	 438	 391
Si       21.6053600382     -0.8721257125     -5.9234625268    -2	 426	 867	 1250	 438
Si       18.8362681524     -1.9351506714     -6.8518256375    -2	 865	 426	 427	 431
Si       17.1905666695     -1.5817640133     -9.4422131565    -2	 425	 858	 427	 428
Si       14.2547758469     -1.8191067282     -8.2497909654    -2	 428	 429	 423	 424
Si       14.3175716447     -2.3882009370     -5.2083581666    -2	 441	 866	 429	 430
Si       17.0547287081     -1.3801780156     -4.3749105078    -2	 431	 430	 439	 440
Si       19.3318745500     14.3609450313     -6.4910789883    -2	 1425	 1251	 414	 432
Si       16.4076813078     14.7578667751     -7.3621691165    -2	 433	 1260	 437	 432
Si       14.7609776063     13.7876527513     -9.8247824982    -2	 433	 434	 1443	 416
Si       11.9554235588     13.3038678278     -8.5404602512    -2	 417	 434	 435	 1259
Si       11.9708567766     14.3184684825     -5.5569097945    -2	 442	 435	 436	 1261
Si       14.9021104049     13.8064345067     -4.7561355605    -2	 436	 437	 1262	 415
Si       10.2944156938     5.3861003228     -4.7710915230     -2	 457	 458	 443	 412
Si       8.8165370574     5.7848195954     -2.0523727664      -2	 443	 444	 455	 448
Si       4.6047895413     4.3673324369     -11.5932946305     -2	 481	 482	 1067	 445
Si       1.6333922861     3.8700411093     -10.4884789503     -2	 1068	 445	 478	 479
Si       4.4189987918     5.2208206015     -0.2059642695      -23	 456	 446	 447	 88
Si       5.9689815135     4.7445810727     -2.7578699248      -2	 460	 461	 447	 448
Si       9.7552068126     9.9602954501     -4.6451005727      -2	 449	 459	 413	 355
Si       8.3735514161     8.9651011625     -2.0248250728      -2	 449	 450	 454	 455
Si       3.7744068564     8.9208190979     -11.5394353337     -2	 451	 357	 1072	 480
Si       0.8483154342     8.6105638154     -10.4758373605     -2	 1073	 451	 477	 358
Si       3.9718153307     8.3457957379     -0.2539783191      -2	 202	 452	 453	 456
Si       5.3074665019     9.3766656969     -2.8329760074      -2	 454	 356	 453	 462
Si       1.1484912634     6.3317461036     -8.4952161680      -2	 387	 477	 478	 463
Si       4.1067999984     6.1885493914     -7.5028588078      -2	 475	 468	 463	 464
Si       5.5676845700     7.0861373245     -4.9419718187      -2	 465	 461	 462	 464
Si       8.4694828297     7.6053207985     -6.2172389987      -2	 465	 458	 459	 466
Si       8.5798787627     6.7972223729     -9.2272063859      -2	 483	 466	 467	 476
Si       5.6753764082     6.9940798291     -10.0747901367     -2	 481	 467	 468	 480
Si       4.6157588431     3.0270576273     -7.3413047306      -2	 474	 475	 469	 470
Si       6.4375754536     2.5373564809     -4.8369161775      -2	 370	 460	 470	 471
Si       9.2685194881     2.8490056427     -6.1148644055      -2	 457	 371	 471	 472
Si       9.0239325534     3.6654815540     -9.1523887787      -2	 473	 476	 484	 472
Si       6.3441471557     2.3679251494     -9.9264912263      -2	 369	 474	 482	 473
Si       16.8068830354     0.6293578359     -11.6667333378    -2	 425	 389	 421	 1258
O       -9.5017595388     -4.9737112705     8.9537768520      -1	 637	 638	 0	 0
O       -11.8407839571     10.8262019871     8.8812797836     -1	 639	 640	 0	 0
O       -9.8476339795     9.0642538425     8.5734147114       -1	 666	 639	 0	 0
O       -12.9538975801     8.6827491217     10.0072646309     -1	 667	 640	 0	 0
O       -9.8271495651     -2.5379431082     12.5082777720     -1	 641	 642	 0	 0
O       -7.8775676518     -2.6961282700     14.2429474288     -1	 642	 643	 0	 0
O       -5.2803748969     -2.3256346046     14.6352460878     -1	 643	 644	 0	 0
O       -4.0553267911     -1.7976057561     12.3451199616     -1	 644	 645	 0	 0
O       -5.2271984778     -2.3196374713     10.0350358423     -1	 645	 646	 0	 0
O       -7.2999430019     -2.5994375035     11.6514986719     -1	 642	 646	 0	 0
O       -8.4338301759     -4.7724120695     12.6829905101     -1	 777	 642	 0	 0
O       -3.9505270495     -4.2521408414     11.3454162408     -1	 780	 645	 0	 0
O       -11.0980006736     -6.1098148114     10.7134975639    -1	 638	 776	 0	 0
O       -11.1410357872     -3.4592505630     10.3845931040    -1	 641	 638	 0	 0
O       -7.5465331836     -3.1666910401     9.0359278532      -1	 637	 646	 0	 0
O       -2.5847086883     -2.2991567201     10.1879516728     -1	 659	 645	 0	 0
O       -11.9581017252     -1.2746555358     11.5901468441    -1	 641	 674	 0	 0
O       -7.3206754472     -0.6890385086     9.7927628526      -1	 646	 679	 0	 0
O       -7.0421642886     -0.5012807541     15.4771559213     -1	 643	 676	 0	 0
O       -3.8511879297     -0.0865663191     14.3422890506     -1	 644	 677	 0	 0
O       -1.4841391983     6.4951653890     8.7580672583       -1	 647	 648	 0	 0
O       -1.5364791871     6.2890080982     6.1308189456       -1	 234	 648	 0	 0
O       2.5987186871     7.0968013756     4.5828930551        -1	 649	 235	 0	 0
O       3.3498925435     6.9982339762     7.1405778099        -1	 649	 650	 0	 0
O       0.7780699730     6.5241618582     7.3780694795        -1	 650	 648	 0	 0
O       -1.0722089606     1.8228386506     8.5350642788       -1	 651	 652	 0	 0
O       3.8984311374     2.7368790538     7.1532914473        -1	 653	 654	 0	 0
O       1.2995624892     2.4950336569     7.4822831697        -1	 652	 654	 0	 0
O       -0.6357722194     4.2748302911     7.6455666868       -1	 652	 648	 0	 0
O       3.4999300228     4.8334443162     5.5734085521        -1	 649	 653	 0	 0
O       -2.2366510912     7.6663078918     10.9924148341      -1	 658	 647	 0	 0
O       -1.4886022321     5.1255564203     11.0847991625      -1	 647	 656	 0	 0
O       -0.7808517085     2.5573625458     11.0707130319      -1	 651	 656	 0	 0
O       1.9362657766     8.4798496359     8.7971472775        -1	 657	 650	 0	 0
O       2.4243452232     5.9597159169     9.3990488411        -1	 650	 655	 0	 0
O       2.8619101312     3.3247563759     9.5147474511        -1	 654	 655	 0	 0
O       -1.5446851930     0.1187688784     10.5204391605      -1	 651	 659	 0	 0
O       2.9737850136     0.8468362765     8.7988466257        -1	 654	 680	 0	 0
O       1.0618716108     4.4739537227     11.0978797207       -1	 655	 656	 0	 0
O       0.2739033150     8.4963436518     10.8703402241       -1	 657	 658	 0	 0
O       -0.7428680117     -1.4275321528     8.5295706745      -1	 659	 660	 0	 0
O       4.5333916950     -1.0140393740     7.2519982773       -1	 661	 680	 0	 0
O       1.7588654184     -1.4770357058     7.5681190412       -1	 660	 680	 0	 0
O       0.3214861680     -3.7167492749     7.8276474962       -1	 785	 660	 0	 0
O       4.6119011795     -3.1670266966     5.6436774607       -1	 786	 661	 0	 0
O       -0.1158680193     -4.6413205928     11.2620001562     -1	 663	 784	 0	 0
O       -0.0689815926     -1.9891740487     11.0562931513     -1	 659	 663	 0	 0
O       3.5057746235     -1.5773558309     9.9056264961       -1	 662	 680	 0	 0
O       2.1950130087     -3.3789979612     11.3761555246      -1	 662	 663	 0	 0
O       -10.5828768062     2.7998001753     8.8353063623      -1	 665	 664	 0	 0
O       -11.2606588163     6.8497917669     9.0193760622      -1	 666	 667	 0	 0
O       -10.9846854764     5.2234828152     12.0107556618     -1	 668	 669	 0	 0
O       -9.2373315625     5.3077712305     13.9793342766      -1	 669	 670	 0	 0
O       -6.6476707372     5.7563515194     14.2873432609      -1	 670	 671	 0	 0
O       -5.1121175966     6.1644352085     12.1643691078      -1	 671	 672	 0	 0
O       -6.3436485441     5.6905824279     9.8596294115       -1	 673	 672	 0	 0
O       -8.3891264377     5.2855224266     11.4745203001      -1	 673	 669	 0	 0
O       -10.2885786108     0.5855806872     12.4649495446     -1	 674	 675	 0	 0
O       -8.4399756136     1.3238876688     14.1525862827      -1	 675	 676	 0	 0
O       -5.8358277972     1.6895215919     14.5145862614      -1	 676	 677	 0	 0
O       -4.4483465477     1.4309501450     12.2667856499      -1	 677	 678	 0	 0
O       -5.7626461576     1.4660727275     9.9690049947       -1	 678	 679	 0	 0
O       -7.8532335256     1.2251325117     11.5688681980      -1	 675	 679	 0	 0
O       -9.5053036949     3.0988955853     12.4875466509      -1	 675	 669	 0	 0
O       -5.0211282935     3.7455422552     11.1219815467      -1	 678	 672	 0	 0
O       -13.1171711531     6.1732303625     10.7759461887     -1	 667	 668	 0	 0
O       -12.4904325006     3.6212661686     10.4604174031     -1	 665	 668	 0	 0
O       -11.8507368553     1.0311874540     10.3545130427     -1	 665	 674	 0	 0
O       -8.6279587470     6.8879785196     9.3524603109       -1	 673	 666	 0	 0
O       -8.3996494332     4.2635762967     9.0126047097       -1	 673	 664	 0	 0
O       -8.2100866484     1.6056153034     8.9368068967       -1	 679	 664	 0	 0
O       -3.7477611739     5.7762218009     9.9104689543       -1	 647	 672	 0	 0
O       -3.2118366597     2.1396850475     10.0207384254      -1	 651	 678	 0	 0
Si       -7.9686291093     -4.6547510243     8.5468598489     -2	 578	 564	 759	 136
Si       -10.9563928567     -4.8945680212     9.6520026439    -2	 577	 564	 1204	 576
Si       -10.3062876755     10.6009892193     8.3855153529    -2	 1421	 140	 565	 566
Si       -13.2299187955     10.1733362478     9.4251398090    -2	 1268	 565	 1206	 567
Si       -11.2974917970     -2.7374408790     11.8363734927   -2	 577	 1275	 580	 568
Si       -8.3536390797     -3.1532014477     12.7633170338    -2	 569	 573	 574	 568
Si       -6.7645418581     -2.0769018204     15.2469146527    -2	 569	 570	 1266	 582
Si       -3.9557631551     -1.6630022182     13.9548050146    -2	 1265	 570	 571	 583
Si       -3.9434413853     -2.6681425110     10.9787487037    -2	 571	 572	 579	 575
Si       -6.8465899426     -2.2002408552     10.1349344499    -2	 578	 572	 573	 581
Si       -2.2208064457     6.2570416916     10.1798339310     -2	 594	 635	 595	 584
Si       -0.7138777456     5.8853118035     7.4683723725      -2	 585	 588	 592	 584
Si       3.6493228665     6.4508184031     5.6428840255       -2	 593	 586	 587	 935
Si       2.1120015567     6.9871101660     8.1865788452       -2	 587	 588	 597	 598
Si       -1.6562298225     1.6594609513     10.0366502271     -2	 596	 636	 589	 600
Si       -0.3090338563     2.7010835675     7.4130644454      -23	 89	 589	 591	 592
Si       4.0892271410     3.3221622171     5.6531162895       -23	 593	 90	 590	 936
Si       2.7399105835     2.3171224637     8.2282335532       -2	 601	 599	 590	 591
Si       2.4846562218     4.6549026229     10.3528700252      -2	 1271	 602	 598	 599
Si       -0.4079143232     4.0371584991     11.6124321872     -2	 602	 595	 596	 1272
Si       1.6174741233     9.1630330082     10.2349224204      -2	 1273	 603	 1420	 597
Si       -1.1927167335     8.7922949621     11.5175406993     -2	 594	 1419	 1274	 603
Si       -1.2248663484     -1.4109912178     10.0688221162    -2	 610	 579	 604	 600
Si       0.3037410782     -2.1183222023     7.4810858056      -23	 91	 604	 606	 607
Si       4.8052552929     -1.5444888180     5.7741344231      -23	 92	 605	 950	 608
Si       3.5606702626     -3.0464150729     10.5552274600     -2	 771	 611	 612	 1276
Si       0.6248794401     -3.2837577878     11.7476496511     -2	 609	 610	 612	 1277
Si       -9.0245606878     2.9017982793     8.4051061047      -2	 633	 634	 188	 613
Si       -11.9965041207     2.4053900497     9.5089616663     -2	 1218	 613	 630	 631
Si       -9.8551249756     7.4562677141     8.4589311067      -2	 566	 632	 614	 192
Si       -12.7815809727     7.1459127558     9.5216032561     -2	 1220	 629	 614	 567
Si       -12.4808589657     4.8662119460     11.5031845672    -2	 629	 1269	 630	 615
Si       -9.5230964085     4.7238983317     12.4945818087     -2	 627	 620	 615	 616
Si       -8.0620302340     5.6205034911     15.0555030926     -2	 617	 1282	 1283	 616
Si       -5.1598673994     6.1397866409     13.7811617365     -2	 617	 618	 1279	 1280
Si       -5.0500176442     5.3325713133     10.7702342306     -2	 618	 619	 628	 635
Si       -7.9539738209     5.5285456715     9.9236105985      -2	 633	 619	 620	 632
Si       -11.7474978469     0.3144034143     11.8070653990    -2	 580	 621	 1270	 631
Si       -9.0139559609     1.5614237939     12.6561701807     -2	 626	 627	 621	 622
Si       -7.1923209533     1.0727054213     15.1605244390     -2	 1281	 582	 622	 623
Si       -4.3611953159     1.3833718094     13.8826105058     -2	 583	 1278	 623	 624
Si       -4.6059638535     2.2008304944     10.8450518378     -2	 625	 636	 628	 624
Si       -7.2852030734     0.9023909919     10.0719095089     -2	 625	 634	 581	 626
Si       3.1769866286     -0.8352932237     8.3307072787      -2	 601	 611	 605	 606
O       -7.0988709254     -9.2592539131     4.7230932702      -1	 723	 724	 0	 0
O       -7.4122888209     -8.7957271953     7.2733211433      -1	 724	 774	 0	 0
O       -13.9787278023     -9.9799973884     -3.1768283873    -1	 725	 726	 0	 0
O       -9.5568530353     -9.2203161505     5.7624242079      -1	 724	 727	 0	 0
O       -8.1714945858     -6.9742615064     5.4935348217      -1	 724	 222	 0	 0
O       -7.6147264526     -6.0484143018     2.0465852718      -1	 731	 221	 0	 0
O       -7.5335668385     -8.7065999772     2.1593151811      -1	 731	 723	 0	 0
O       -11.2348301802     -9.0193037446     3.6710029892     -1	 730	 727	 0	 0
O       4.4990955274     -7.0648447131     0.4187575000       -1	 876	 740	 0	 0
O       -11.9857594276     -11.7409627592     -3.4847277543   -1	 746	 725	 0	 0
O       -15.0914743093     -12.1224115265     -2.0521800547   -1	 747	 726	 0	 0
[...]
 1151      Si     17.9956830271    -3.5157975790     2.9232607049
 1152      Si     19.2911274402    -2.8314512585     0.1911004083
 1153      Si     22.3179218177    -2.9801747312     0.8956954157
 1154      Si     22.4689325509    -5.0743820662     3.1247230953
 1155      Si     19.6628323256    -5.5572838917     4.4080852237
 1156      Si     11.4821801980    -9.9402329458     1.4100359650
 1157      Si      8.5570020696   -10.2503325991     2.4732575423
 1158      O       6.5306609066    -7.7947025293   -15.2752731702
 1159      O       6.2174259831    -7.3300933619   -12.7241537680
 1160      O       2.1216312222    -8.3003891492   -11.3470679459
 1161      O       1.4802254389    -8.1655454509   -13.9129989267
 1162      O       4.0730433716    -7.7556650909   -14.2350164086
 1163      O       5.4580372462    -5.5097101226   -14.5048316187
 1164      O       1.2666516742    -6.0130471275   -12.3616114138
 1165      O      16.2129359488    -9.7322053859   -19.1083911813
 1166      O      13.7681445789   -10.3279748167   -18.2197844389
 1167      O      17.8837314554    -7.8799747510   -18.2364679904
 1168      O      13.1974826679    -8.4936598847   -16.3725517211
 1169      O      15.3911448729    -4.1443692343   -15.6729297028
 1170      O      15.7507753651    -6.6877267718   -19.2552535778
 1171      O      11.1475579894    -6.8468543428   -16.7309304590
 1172      O      13.2364129551    -6.7159165137   -18.3539123495
 1173      O      14.3926803950    -4.4483052076   -19.1538183265
 1174      O       9.8284940643    -4.9058431878   -17.9812484415
 1175      O      17.0545258177    -3.0152590397   -17.3762470546
 1176      O      17.0138273939    -5.6630845102   -17.1377980745
 1177      O      13.4760854483    -5.9745810756   -15.7867629841
 1178      O       8.5144668280    -6.8585616486   -16.7405155795
 1179      Si      7.1804289092    -7.7885863025   -16.7620556474
 1180      Si      5.5607084937    -7.0974198793   -14.1842254065
 1181      Si      1.1092223556    -7.6275480329   -12.4228309863
 1182      Si      2.7248718546    -8.3359653334   -14.9485955488
 1183      Si     17.6733103519    -9.4711426469   -18.4564718234
 1184      Si     14.9188188219   -10.6776174298   -19.3157337213
 1185      Si     13.2080694605   -10.0755138150   -16.7086708415
 1186      Si     13.8647265205    -4.4961264733   -15.2500031627
 1187      Si     16.8594209041    -4.2546027566   -16.3429372153
 1188      Si     17.1939307048    -6.4452543442   -18.5491871592
 1189      Si     14.2706507564    -6.0481769711   -19.4206536835
 1190      Si      9.8336446223    -6.4865924900   -17.6154286563
 1191      Si     12.7639849569    -6.9987820951   -16.8142780263
 1192      O      -5.5611330797    -0.8339774030    -8.1685775310
 1193      O      -2.4689014010    -0.4383815615    -9.6200213553
 1194      O      -1.6201180066    -2.8234667354   -10.2656191114
 1195      O      -6.1182771898    -3.2531951905    -8.9665065613
 1196      O       3.8022006640    -1.0724089506    -7.4901229632
 1197      O       2.4886790168    -1.9936167296    -9.6128818073
 1198      O       1.6700267036     0.0668464173    -8.3987397191
 1199      O      -4.7240656847    -7.0412181425    -3.5126834624
 1200      O      -4.8357894178    -6.9196256229    -6.1431925512
 1201      O      -0.5347379773    -6.6267363174    -7.7247561323
 1202      O      -0.9381463490    -7.8052183834    -3.3486120870
 1203      O       1.8529352054    -5.7091302135    -6.9610567080
 1204      H     -12.1168609314    -5.0110396662     8.5229401108
 1205      H     -12.7411007880    -5.4354724830     5.9640170198
 1206      H     -14.2937286518    10.0685295473     8.2059933267
 1207      H     -14.9349528322    10.2023904719     5.6400966406
 1208      H     -14.0206582222    10.8141663357     3.2256978214
 1209      H     -18.7468446082    10.1235057800    -1.8909436788
 1210      H     -10.9562277312    12.8583814294     5.0478875526
 1211      H     -18.3115017711     3.5061722850     0.2842788454
 1212      H     -17.7937250577    -0.0711323173     0.3218695053
 1213      H      -7.9189552616    11.5768652585    -1.6591948421
 1214      H     -17.1313252737    -4.5956121812     0.3267158359
 1215      H      -2.0230440538    13.9205138131     0.3983171222
 1216      H      -6.5857709130    13.4622483642     1.5714707298
 1217      H      -2.9394573977    12.3932551713     3.7654067593
 1218      H     -13.1048933875     2.1298907526     8.3581504868
 1219      H     -13.8124234506     2.2322158734     5.7936761198
 1220      H     -13.8072151233     6.8647663128     8.2956076334
 1221      H     -14.3806596476     6.4780493060     5.7320637321
 1222      H     -17.0397195248    -5.9836133320    -3.9808496241
 1223      H     -19.2165872452     9.0959558814    -4.2977964082
 1224      H     -19.8578114256     9.2298168060    -6.8636930942
 1225      H     -15.8792679275    11.8867905373    -7.4559364771
 1226      H     -12.4915583193    -4.3720657433   -10.4883266327
 1227      H     -15.2424350768    10.1552792110   -10.7898140164
 1228      H     -18.9435168156     9.8415926699    -9.2780919135
 1229      H      -6.1902401130     2.9401760241   -13.5517127001
 1230      H     -10.2740309890     2.0307235622   -11.7776193258
 1231      H      -6.9849824590     6.9568687360   -13.7608496437
 1232      H     -10.9432442530     6.8083355224   -11.8696821592
 1233      H      -5.0330274628    -5.0368536923   -13.3991716038
 1234      H      -9.3832435978    -5.0694842736   -11.6512883627
 1235      H      -7.5965856974    11.0636784349   -13.8735864008
 1236      H     -11.4962083000    10.0373067567   -11.9347631144
 1237      H      -6.9459026473    12.9479401472   -12.1054726127
 1238      H     -11.5086295065    12.4896746984   -10.9323190051
 1239      H      -7.8624975940    11.4216642792    -8.7384172703
 1240      H     -18.0277519809     1.1573170867    -4.1456392480
 1241      H     -18.7302553196     5.8931754207    -4.2082163962
 1242      H     -19.3036998439     5.5064584139    -6.7717602976
 1243      H     -13.1690255866     0.5577746309   -10.5773265592
 1244      H     -13.9601724556     3.0875024926   -10.6699147714
 1245      H     -14.6098175946     5.6741955474   -10.6958229479
 1246      H     -18.2712133673     5.0545953977    -9.1797547930
 1247      H       7.5959810914    15.2964892529    -2.4467234478
 1248      H       3.4036822256    14.7929966187    -0.3031268468
 1249      H       4.5320967781    13.2513910613    -4.2679530603
 1250      H      22.5807561810    -1.0006857898    -7.2204593160
 1251      H      20.2669357795    15.2060057220    -7.5205749456
 1252      H      -0.1940896079    12.5607305055    -9.3845945605
 1253      H      16.2284334910     8.5624352090   -15.4145818562
 1254      H      16.9797889504     8.4628850359   -12.8568628066
 1255      H      16.9503699258     3.8540295834   -15.4263397844
 1256      H      17.5281459414     4.2025128872   -12.8441834641
 1257      H      17.4309892578     0.6058597588   -15.3242229501
 1258      H      18.1631064990     0.4515944594   -12.7454766340
 1259      H      10.6337997387    14.0140899840    -9.1528457238
 1260      H      16.5306242402    16.3578941678    -7.0957101555
 1261      H      11.9666195124    15.8993734140    -5.9231059758
 1262      H      15.6142108963    14.8306355261    -3.7286205184
 1263      H      21.4505834992     7.1805419297    -7.3797097815
 1264      H      20.9357333522    10.7592087488    -7.4229200120
 1265      H      -2.6456595296    -2.4279011853    14.5192871317
 1266      H      -6.8833108541    -2.7952112846    16.6941642646
 1267      H      -6.6145945498    -5.4019151664    16.2976073069
 1268      H     -13.8238044119    11.0950966721    10.6128803508
 1269      H     -13.3884615748     4.4777631771    12.7881028750
 1270      H     -12.8708664643     0.9014413486    12.8256592402
 1271      H       3.6556586767     4.8843405821    11.4559010643
 1272      H      -0.4284967742     3.9747884444    13.2290686148
 1273      H       2.8609163307     8.9010332940    11.2467641208
 1274      H      -1.0973454633     8.7525000804    13.1379316053
 1275      H     -12.2084666803    -3.6230385154    12.8305055708
 1276      H       4.8134200458    -3.0926331808    11.6071399408
 1277      H       0.4626551920    -3.1253197156    13.3563254018
 1278      H      -3.3222135030     2.5020948181    14.4299108093
 1279      H      -4.1133603721     5.0318226799    14.3373225971
 1280      H      -4.7639188049     7.6183601054    14.3117908166
 1281      H      -7.5241841140     1.8093782358    16.5674448373
 1282      H      -7.9871149027     4.3836957037    16.1021033937
 1283      H      -8.4247658587     6.9988159091    15.8265567515
 1284      H     -11.5079006098    -9.7649405330     8.6512984945
 1285      H     -12.1491247902    -9.6310796085     6.0854018085
 1286      H      -4.3738632455   -13.1387530806    -1.0661040277
 1287      H      -0.2018596715   -12.3253669658    -3.2609951882
 1288      H      -3.2354709114   -12.0527165214     1.0797891396
 1289      H      -1.9287186976   -12.1459310664     3.3857160032
 1290      H       1.7534175131   -13.6852922567     0.8625824253
 1291      H       4.1574162097   -11.6660620874     2.9874941387
 1292      H       0.5200479544   -12.2471018169     4.4024595123
 1293      H     -16.6998197949    -8.1463549390     0.5325941736
 1294      H      -6.8608564200   -12.8360105747     7.3658658445
 1295      H     -11.0213870813   -12.9687037675     8.7409128013
 1296      H       5.1688063939   -11.5114860571     0.5160360375
 1297      H     -15.2551149983   -14.6329690130    -1.2821619823
 1298      H     -10.7649892984   -13.9180652266    -2.7060242561
 1299      H      -2.6907729625    -5.0766677805    14.5500329054
 1300      H      -2.6107082450    -7.7340263113    14.6631049160
 1301      H      -6.3117899839    -8.0477128525    16.1748270189
 1302      H       0.5488123759   -12.1672618643    11.4367941780
 1303      H       4.7211805248   -11.3537760737     9.2428288414
 1304      H       5.6467443727   -10.9324367863    11.6920692886
 1305      H       1.6875692849   -11.0811256292    13.5836131692
 1306      H     -11.7767795986    -7.1747640469    13.0364182033
 1307      H       5.0347765594    -6.8257267633    11.5784067077
 1308      H       1.1355185317    -7.8519987657    13.5181558179
 1309      H     -10.3322564049   -13.6603953471    11.2216277526
 1310      H      -5.8421307050   -12.9454915607     9.7977654787
 1311      H     -16.4307592032   -10.7375141989    -3.8524912403
 1312      H     -12.5372204711    -7.0208882919   -10.4562786392
 1313      H     -12.4566070348    -9.6781908693   -10.3445088485
 1314      H      -4.1991544170   -12.8766013443   -13.3155444758
 1315      H      -6.8515772910   -13.1185047323    -9.1180737316
 1316      H      -3.1694410803   -14.6578659226   -11.6412073095
 1317      H      -0.7656239866   -12.6376529795    -9.5163298909
 1318      H      -4.4039055356   -13.2188483383    -8.1009881213
 1319      H      -4.8116709492    -8.7699472747   -13.4279048369
 1320      H      -8.7103802580    -9.7961633237   -11.4894579465
 1321      H     -11.7837150135   -13.8085842406    -5.1379238904
 1322      H     -15.9444272776   -13.9402946596    -3.7629112283
 1323      H       0.2459478005   -12.4840597229   -11.9877536973
 1324      H      23.0527638215    -4.6274643584    -7.0752697777
 1325      H      14.1785271799   -10.7016280309    -8.5606807333
 1326      H      18.3508953288    -9.8881422403   -10.7546460699
 1327      H      15.3169195140    -9.6155914716    -6.4147875660
 1328      H      16.6236717278    -9.7088060167    -4.1088607024
 1329      H      20.3061725134   -11.2480675312    -6.6310684563
 1330      H      22.7101712100    -9.2288373618    -4.5061567429
 1331      H      19.0724383798    -9.8099767672    -3.0921171933
 1332      H      18.0180170230    -4.1895115919   -15.2184070140
 1333      H      18.6037409798    -3.7633071396   -12.6671902041
 1334      H      11.6918985802   -10.3987858492    -0.1277850372
 1335      H       7.5310033441   -10.5315787178     1.2463360957
 1336      H      23.7211968193    -9.0743610073    -6.9785406681
 1337      H       3.2970938242   -12.1948611895    -8.7767729826
 1338      H       7.7877657019   -11.4808405011   -10.1996751378
 1339      H      15.9069138678     0.0103063140     7.0256019553
 1340      H      11.6690795713    -0.3580862349     9.1995875590
 1341      H      11.9377958756    -2.9647901167     8.8030306013
 1342      H       4.7289505884    13.5323213976     3.1192294691
 1343      H      21.1523869811     9.5341817304    -2.9111342226
 1344      H      21.9026475438     9.4354587017    -0.3530730717
 1345      H      21.8732285192     4.8266032493    -2.9225500496
 1346      H      22.4511861377     5.1741037794    -0.3403594344
 1347      H      22.2093269708     7.3217209369     3.9618737866
 1348      H      18.1242582261     6.4120131699     5.7354177331
 1349      H      21.4142200499    11.3383139730     3.7518110192
 1350      H      17.4550449621    11.1896251301     5.6433548997
 1351      H      22.3538478512     1.5784334246    -2.8204332152
 1352      H      23.0861466953     1.4231853516    -0.2416526044
 1353      H      15.5562937573    14.9865639741     3.3500181872
 1354      H      23.3661750461    -0.6554084553     4.1134890591
 1355      H      19.0154101923    -0.6880949901     5.8626745201
 1356      H      20.8017035177    15.4449680426     3.6394506582
 1357      H      16.9024454900    14.4186960402     5.5791997684
 1358      H      15.2301769224     4.9392198678     6.9353341037
 1359      H      14.4393946282     7.4690474054     6.8436717154
 1360      H      13.7884716205    10.0554851551     6.8172141110
 1361      H      11.0285708863     4.2466029613     9.0737939556
 1362      H      10.5661888165     6.8209763827     8.6071502920
 1363      H      10.1279891416     9.4360406346     8.3329058699
 1364      H       2.6734870728    14.3240152628   -14.9495873587
 1365      H      -1.5191763678    13.8204229528   -12.8069165817
 1366      H       6.0611966810    -1.9348410178   -17.9819775144
 1367      H       3.3112332173    12.5926595658   -18.2838412941
 1368      H       1.8235453565    -2.3021511171   -15.8071003816
 1369      H       2.0918970858    -4.9089546747   -16.2045831632
 1370      H      -0.3907618153    12.2788173954   -16.7717427952
 1371      H      17.6569842938    -1.9734150850   -19.7238726548
 1372      H      15.3438955832    14.2344148299   -20.0243989752
 1373      H      12.3625148873     5.3774007496   -21.0453635818
 1374      H       8.2783594364     4.4678486119   -19.2721960314
 1375      H      11.5677725413     9.3940934616   -21.2545005254
 1376      H       7.6095107473     9.2455602479   -19.3633330409
 1377      H      13.5202762564    -2.5995730133   -20.8941247054
 1378      H       9.1695114025    -2.6322595481   -19.1449392444
 1379      H      10.9558047280    13.5008034846   -21.3681631063
 1380      H       7.0565467003    12.4745314822   -19.4284139961
 1381      H      11.6068523530    15.3851648727   -19.5991234943
 1382      H       7.0435793161    14.9277825218   -18.4269300054
 1383      H      10.6902574063    13.8588890047   -16.2320681520
 1384      H       5.3842781326     2.9950553098   -18.0722796608
 1385      H       4.5925825446     5.5247272181   -18.1635656530
 1386      H       3.9429374057     8.1114202729   -18.1894738296
 1387      H       1.1826720965     2.3024384033   -15.9338198089
 1388      H       0.7193767330     4.8766561954   -16.4000870764
 1389      H       0.2820903519     7.4918760766   -16.6747078946
 1390      H      16.5275433029     6.2089510376   -19.8835338111
 1391      H      16.0128747588     9.7866350829   -19.9267097469
 1392      H      15.8619820378    -2.6394430549     7.0563820237
 1393      H      15.9416821804    -5.2969012616     7.1685282104
 1394      H      12.2406004415    -5.6105878028     8.6802503133
 1395      H      19.1015673762    -9.7300371388     3.9431432964
 1396      H      23.2739355251    -8.9165513482     1.7491779598
 1397      H      24.1991347981    -8.4953117366     4.1974925831
 1398      H      20.2408730041    -8.6438449503     6.0886600676
 1399      H      22.9410572193    -3.2179206998    -2.7145829844
 1400      H      23.5264166012    -2.7918159232    -0.1642919983
 1401      H      23.5875315597    -4.3885020378     4.0847558260
 1402      H      19.6882735320    -5.4147740401     6.0245049363
 1403      H       8.2201340205   -11.2232702974     3.7270510470
 1404      H      12.7102597204   -10.5083665110     2.3031887731
 1405      H       6.0151699542    -4.5837632422   -17.9508553448
 1406      H       6.0961479655    -7.2409661438   -17.8381597302
 1407      H       2.3950662267    -7.5546526850   -16.3264376273
 1408      H      18.1297236252    -5.5990552505   -19.5790938073
 1409      H      14.3532360084   -10.4394762946   -20.8101211814
 1410      H      11.7011777093   -10.6812800067   -16.6117246133
 1411      H      15.3833139200   -12.2206411971   -19.1348581912
 1412      H      17.7871310137   -10.2004282540   -17.0099807726
 1413      H      14.1497627584   -10.7814679835   -15.5950153990
 1414      H      13.7407194762    -6.3328222250   -20.9224815424
 1415      H       9.8423747423    -7.3589385981   -18.9831088282
 1416      H       6.7690399868   -11.3713595151   -12.6315747721
 1417      H       2.6083277227   -11.5030699341   -11.2565621100
 1418      H      18.7987028008   -10.0468349974   -19.4814045790
 1419      H      -1.6425128438    10.0801873162    11.1207186440
 1420      H       1.4245058065    10.5589314160    10.0569340391
 1421      H      -9.4375851656    11.3985951555     9.1759365823
 1422      H       9.1151698347    13.8358198810     1.6822857007
 1423      H       0.6237390383    12.6385784887     2.2202913501
 1424      H      14.2530892674    14.1041126463   -17.7781093851
 1425      H      19.1759478609    15.0766863121    -5.2743196503
 1426      H      19.7311733797    15.3663063344     1.3972629855
 1427      H       7.5425789582    -9.1067740653   -17.1483487536
 1428      H       2.9313748977    -9.7030529624   -15.2704929047
 1429      H     -15.9694632851     1.8419004781    -6.9449154446
 1430      H     -14.8450471290    -6.2252695479    -6.7524730380
 1431      H     -14.2975935389   -10.0917963423    -6.7332346684
 1432      H      -3.7446218169    11.9574907167    -3.6129101625
 1433      H       4.1921296384    12.8642289889   -10.8215383290
 1434      H     -14.3606253619    10.4270042633    -3.3278874473
 1435      H     -10.1615934493    11.0976311038     1.8483595173
 1436      H      -4.2993011580    11.6669875965   -10.2835326796
 1437      H       8.3907969761    13.5347561535    -5.6462171883
 1438      H     -11.0101760421   -11.5439987908    -9.6546978720
 1439      H     -10.6983399062   -11.1686867958     4.7269820066
 1440      H      -6.0873174486   -10.5714251249     2.8490918629
 1441      H       7.8538689163    -8.7305789723    -2.7676289937
 1442      H      12.4650729768    -8.1343000752    -4.6454848427
 1443      H      14.8081331834    14.3947154423   -11.1065610441
 ----------------------------------------------------------------
 Nuclear Repulsion Energy =     2633118.78235831 hartrees
 There are      295 alpha and      295 beta electrons
 Total job time:  241.11s(wall), 6239.67s(cpu) 
 Thu Oct 21 16:10:06 2021

        *************************************************************
        *                                                           *
        *  Thank you very much for using Q-Chem.  Have a nice day.  *
        *                                                           *
        *************************************************************


