95
# Point 0 Energy = -8505.0810217
C       18.0234604800     4.9052239805     9.2738613334
H       16.3034627482     5.7332710199     10.2899767431
C       16.5329001943     4.9128462444     9.5898020918
H       16.2592097492     3.9797646952     10.1091851758
H       15.8971369356     6.0102404072     7.8316668361
C       15.6618972459     5.0611212328     8.3447929020
H       14.5890958207     5.0754459699     8.5887300884
H       15.8328409744     4.2100699835     7.6605205896
H       18.3258848650     5.8351315964     8.7651980244
H       18.2821570179     4.0607786100     8.6155662209
H       18.6256564962     4.8211161916     10.1890536927
H       16.1695074769     5.2002414554     5.9784028095
Al       16.4724611346     3.4733912679     4.3097321876
O       16.3241664807     5.2638575530     5.0151463242
O       18.0777745866     3.2229756299     3.7826924030
O       15.3159041745     3.3680023102     3.0457388904
O       16.0355036337     2.6625350449     5.7645527895
Si       16.5352603275     6.8618443875     4.4590892452
Si       18.8515373989     2.6121061373     2.4777982075
Si       13.9106501364     2.9317552177     2.3785329783
Si       15.6613373261     1.2037461211     6.3419509417
O       15.4892883170     7.2018003362     3.2738717436
O       16.3021675861     7.7491111790     5.7895204525
O       18.0358974243     7.0073681455     3.8912394354
O       12.6647701582     3.7924627808     3.0516661806
O       14.0230191277     1.1109604169     6.5367532524
O       16.3798497462     1.0124442841     7.8107386226
Si       14.1003310213     7.7846358305     2.5835285211
Si       15.8939997131     9.1386263568     6.5693061393
Si       18.8930580428     7.6485989433     2.6214386357
Si       11.6399169308     3.8170682797     4.3149688582
Si       12.4524046014     1.5487429417     6.3824385581
Si       16.0832490584     0.5667313614     9.3359111028
O       12.2841447071     7.6338117067     5.7675614829
O       12.8263746868     7.0186100052     3.2396763494
O       11.3523509383     5.3783202392     4.7513102874
O       12.2847935630     2.9894632947     5.5802806604
O       14.2762832256     9.1893949638     6.6966389723
Si       11.6842951526     6.9318150348     4.4104170801
Si       12.6515527826     8.9912343443     6.6100308309
O       16.6067157432     9.0960786560     8.0326328218
Si       16.3860781134     9.5972864821     9.5748141152
O       16.3599271418     7.0715232917     13.1902836858
O       14.6138351486     5.0575244523     12.9234097085
O       17.9110688412     4.9418979542     12.7113712471
O       17.4604409165     8.8417874579     10.5323877341
O       14.8580058354     9.2283059121     10.0177582066
O       18.8550371984     7.3930942593     12.2843165374
O       14.0669331000     7.4445589487     11.8815669028
O       16.2122622114     2.9204230455     13.1352081118
O       18.6794788927     2.4439726417     12.2051761757
O       13.9648392011     2.8037595633     11.6733344772
Si       14.7695990409     6.6612398341     13.1326242317
Si       17.8938288136     6.4850169035     13.2400643620
Si       18.7567782339     8.8487081115     11.5411042685
Si       13.8378807378     8.9570727471     11.2797117738
Si       14.6568808044     3.4317040103     13.0101663298
Si       17.7862978422     3.3830970187     13.1905859881
O       17.1635862509     1.2917769864     10.3305365195
O       14.5673932279     1.0325723456     9.7416259761
Si       18.4658594051     1.0879716815     11.3057097166
Si       13.5746850960     1.3475317431     11.0045122526
H       18.4194494947     3.5515804975     1.3175612833
H       18.5436494947     1.0979404975     2.3111612833
H       20.3358094947     2.6867804975     2.7628812833
H       13.9126985137     3.2689524239     0.9499000650
H       13.5989785137     1.4758724239     2.5672600650
H       16.1843934889     0.0698716962     5.5284135021
H       10.5339101150     7.6985972093     3.8880907931
H       10.3610798573     3.2394974689     3.8878149354
H       14.1164729845     7.4963428729     1.1493797084
H       14.0171129845     9.2553828729     2.8403397084
H       16.3658464799     10.3195821150     5.8336419179
H       18.5193711462     6.9748599220     1.3787325176
H       18.6730111462     9.1239799220     2.5167725176
H       20.2839311462     7.2959399220     2.8479725176
H       12.1154907254     10.1541507540     5.8838198932
H       12.0989307254     8.8698307540     7.9611798932
H       11.7931988709     0.4939914418     5.5822525114
H       11.7711188709     1.7019514418     7.6982525114
H       19.6784352552     0.8610097410     10.5071142040
H       12.4753569618     9.0575378263     10.7653943686
H       16.5846127519     11.0499549251     9.6722025559
H       18.5673487615     9.9053886554     12.5591457682
H       14.0890369618     9.9572978263     12.3468743686
H       12.2095813105     1.4162945459     10.4922184069
H       13.7257413105     0.2874545459     12.0322984069
H       19.9795487615     9.0727886554     10.7605457682
H       14.1157344261     7.0688311932     14.3838673653
H       18.3851528079     6.5441333588     14.6187825757
H       13.9181169672     2.9703883273     14.1909907331
H       18.2799503302     3.2746997680     14.5651443058
H       18.2101152552     -0.0543902590     12.2081942040
H       16.1933064275     -0.8909694846     9.5123303149
95
# Point 1 Energy = -8505.07453482
C       18.0390771125     4.9260682275     9.1490814890
H       16.3701003385     4.4257909704     10.4300123288
C       16.5928900557     4.4913236095     9.3520266557
H       16.4504796563     3.4762140426     8.9463441810
H       15.6938411828     6.4495062702     9.1138245587
C       15.5902192319     5.4343518660     8.6917021766
H       14.5503236640     5.1140919447     8.8549940551
H       15.7591309148     5.4609910282     7.5996867083
H       18.2113278767     5.9346569846     9.5589661531
H       18.2971042293     4.9481088521     8.0784272238
H       18.7363610076     4.2432740931     9.6539364744
H       16.1695074769     5.2002414554     5.9784028095
Al       16.4724611346     3.4733912679     4.3097321876
O       16.3241664807     5.2638575530     5.0151463242
O       18.0777745866     3.2229756299     3.7826924030
O       15.3159041745     3.3680023102     3.0457388904
O       16.0355036337     2.6625350449     5.7645527895
Si       16.5352603275     6.8618443875     4.4590892452
Si       18.8515373989     2.6121061373     2.4777982075
Si       13.9106501364     2.9317552177     2.3785329783
Si       15.6613373261     1.2037461211     6.3419509417
O       15.4892883170     7.2018003362     3.2738717436
O       16.3021675861     7.7491111790     5.7895204525
O       18.0358974243     7.0073681455     3.8912394354
O       12.6647701582     3.7924627808     3.0516661806
O       14.0230191277     1.1109604169     6.5367532524
O       16.3798497462     1.0124442841     7.8107386226
Si       14.1003310213     7.7846358305     2.5835285211
Si       15.8939997131     9.1386263568     6.5693061393
Si       18.8930580428     7.6485989433     2.6214386357
Si       11.6399169308     3.8170682797     4.3149688582
Si       12.4524046014     1.5487429417     6.3824385581
Si       16.0832490584     0.5667313614     9.3359111028
O       12.2841447071     7.6338117067     5.7675614829
O       12.8263746868     7.0186100052     3.2396763494
O       11.3523509383     5.3783202392     4.7513102874
O       12.2847935630     2.9894632947     5.5802806604
O       14.2762832256     9.1893949638     6.6966389723
Si       11.6842951526     6.9318150348     4.4104170801
Si       12.6515527826     8.9912343443     6.6100308309
O       16.6067157432     9.0960786560     8.0326328218
Si       16.3860781134     9.5972864821     9.5748141152
O       16.3599271418     7.0715232917     13.1902836858
O       14.6138351486     5.0575244523     12.9234097085
O       17.9110688412     4.9418979542     12.7113712471
O       17.4604409165     8.8417874579     10.5323877341
O       14.8580058354     9.2283059121     10.0177582066
O       18.8550371984     7.3930942593     12.2843165374
O       14.0669331000     7.4445589487     11.8815669028
O       16.2122622114     2.9204230455     13.1352081118
O       18.6794788927     2.4439726417     12.2051761757
O       13.9648392011     2.8037595633     11.6733344772
Si       14.7695990409     6.6612398341     13.1326242317
Si       17.8938288136     6.4850169035     13.2400643620
Si       18.7567782339     8.8487081115     11.5411042685
Si       13.8378807378     8.9570727471     11.2797117738
Si       14.6568808044     3.4317040103     13.0101663298
Si       17.7862978422     3.3830970187     13.1905859881
O       17.1635862509     1.2917769864     10.3305365195
O       14.5673932279     1.0325723456     9.7416259761
Si       18.4658594051     1.0879716815     11.3057097166
Si       13.5746850960     1.3475317431     11.0045122526
H       18.4194494947     3.5515804975     1.3175612833
H       18.5436494947     1.0979404975     2.3111612833
H       20.3358094947     2.6867804975     2.7628812833
H       13.9126985137     3.2689524239     0.9499000650
H       13.5989785137     1.4758724239     2.5672600650
H       16.1843934889     0.0698716962     5.5284135021
H       10.5339101150     7.6985972093     3.8880907931
H       10.3610798573     3.2394974689     3.8878149354
H       14.1164729845     7.4963428729     1.1493797084
H       14.0171129845     9.2553828729     2.8403397084
H       16.3658464799     10.3195821150     5.8336419179
H       18.5193711462     6.9748599220     1.3787325176
H       18.6730111462     9.1239799220     2.5167725176
H       20.2839311462     7.2959399220     2.8479725176
H       12.1154907254     10.1541507540     5.8838198932
H       12.0989307254     8.8698307540     7.9611798932
H       11.7931988709     0.4939914418     5.5822525114
H       11.7711188709     1.7019514418     7.6982525114
H       19.6784352552     0.8610097410     10.5071142040
H       12.4753569618     9.0575378263     10.7653943686
H       16.5846127519     11.0499549251     9.6722025559
H       18.5673487615     9.9053886554     12.5591457682
H       14.0890369618     9.9572978263     12.3468743686
H       12.2095813105     1.4162945459     10.4922184069
H       13.7257413105     0.2874545459     12.0322984069
H       19.9795487615     9.0727886554     10.7605457682
H       14.1157344261     7.0688311932     14.3838673653
H       18.3851528079     6.5441333588     14.6187825757
H       13.9181169672     2.9703883273     14.1909907331
H       18.2799503302     3.2746997680     14.5651443058
H       18.2101152552     -0.0543902590     12.2081942040
H       16.1933064275     -0.8909694846     9.5123303149
95
# Point 2 Energy = -8505.07506038
C       18.0401300823     5.0377137971     9.0875792170
H       16.5568634087     3.5177150206     9.4950940229
C       16.6624060839     4.4228971316     8.8742164296
H       16.5624257298     4.0912748701     7.8276329263
H       15.5873799659     5.7006502386     10.2566687039
C       15.5241821845     5.3868064451     9.1998000308
H       14.5359102325     4.9265277963     9.0512215627
H       15.5780412453     6.2717889295     8.5397668585
H       18.1706550189     5.3659428347     10.1316845682
H       18.1848963189     5.9149275843     8.4372692556
H       18.8385357902     4.3153197717     8.8685212015
H       16.1695074769     5.2002414554     5.9784028095
Al       16.4724611346     3.4733912679     4.3097321876
O       16.3241664807     5.2638575530     5.0151463242
O       18.0777745866     3.2229756299     3.7826924030
O       15.3159041745     3.3680023102     3.0457388904
O       16.0355036337     2.6625350449     5.7645527895
Si       16.5352603275     6.8618443875     4.4590892452
Si       18.8515373989     2.6121061373     2.4777982075
Si       13.9106501364     2.9317552177     2.3785329783
Si       15.6613373261     1.2037461211     6.3419509417
O       15.4892883170     7.2018003362     3.2738717436
O       16.3021675861     7.7491111790     5.7895204525
O       18.0358974243     7.0073681455     3.8912394354
O       12.6647701582     3.7924627808     3.0516661806
O       14.0230191277     1.1109604169     6.5367532524
O       16.3798497462     1.0124442841     7.8107386226
Si       14.1003310213     7.7846358305     2.5835285211
Si       15.8939997131     9.1386263568     6.5693061393
Si       18.8930580428     7.6485989433     2.6214386357
Si       11.6399169308     3.8170682797     4.3149688582
Si       12.4524046014     1.5487429417     6.3824385581
Si       16.0832490584     0.5667313614     9.3359111028
O       12.2841447071     7.6338117067     5.7675614829
O       12.8263746868     7.0186100052     3.2396763494
O       11.3523509383     5.3783202392     4.7513102874
O       12.2847935630     2.9894632947     5.5802806604
O       14.2762832256     9.1893949638     6.6966389723
Si       11.6842951526     6.9318150348     4.4104170801
Si       12.6515527826     8.9912343443     6.6100308309
O       16.6067157432     9.0960786560     8.0326328218
Si       16.3860781134     9.5972864821     9.5748141152
O       16.3599271418     7.0715232917     13.1902836858
O       14.6138351486     5.0575244523     12.9234097085
O       17.9110688412     4.9418979542     12.7113712471
O       17.4604409165     8.8417874579     10.5323877341
O       14.8580058354     9.2283059121     10.0177582066
O       18.8550371984     7.3930942593     12.2843165374
O       14.0669331000     7.4445589487     11.8815669028
O       16.2122622114     2.9204230455     13.1352081118
O       18.6794788927     2.4439726417     12.2051761757
O       13.9648392011     2.8037595633     11.6733344772
Si       14.7695990409     6.6612398341     13.1326242317
Si       17.8938288136     6.4850169035     13.2400643620
Si       18.7567782339     8.8487081115     11.5411042685
Si       13.8378807378     8.9570727471     11.2797117738
Si       14.6568808044     3.4317040103     13.0101663298
Si       17.7862978422     3.3830970187     13.1905859881
O       17.1635862509     1.2917769864     10.3305365195
O       14.5673932279     1.0325723456     9.7416259761
Si       18.4658594051     1.0879716815     11.3057097166
Si       13.5746850960     1.3475317431     11.0045122526
H       18.4194494947     3.5515804975     1.3175612833
H       18.5436494947     1.0979404975     2.3111612833
H       20.3358094947     2.6867804975     2.7628812833
H       13.9126985137     3.2689524239     0.9499000650
H       13.5989785137     1.4758724239     2.5672600650
H       16.1843934889     0.0698716962     5.5284135021
H       10.5339101150     7.6985972093     3.8880907931
H       10.3610798573     3.2394974689     3.8878149354
H       14.1164729845     7.4963428729     1.1493797084
H       14.0171129845     9.2553828729     2.8403397084
H       16.3658464799     10.3195821150     5.8336419179
H       18.5193711462     6.9748599220     1.3787325176
H       18.6730111462     9.1239799220     2.5167725176
H       20.2839311462     7.2959399220     2.8479725176
H       12.1154907254     10.1541507540     5.8838198932
H       12.0989307254     8.8698307540     7.9611798932
H       11.7931988709     0.4939914418     5.5822525114
H       11.7711188709     1.7019514418     7.6982525114
H       19.6784352552     0.8610097410     10.5071142040
H       12.4753569618     9.0575378263     10.7653943686
H       16.5846127519     11.0499549251     9.6722025559
H       18.5673487615     9.9053886554     12.5591457682
H       14.0890369618     9.9572978263     12.3468743686
H       12.2095813105     1.4162945459     10.4922184069
H       13.7257413105     0.2874545459     12.0322984069
H       19.9795487615     9.0727886554     10.7605457682
H       14.1157344261     7.0688311932     14.3838673653
H       18.3851528079     6.5441333588     14.6187825757
H       13.9181169672     2.9703883273     14.1909907331
H       18.2799503302     3.2746997680     14.5651443058
H       18.2101152552     -0.0543902590     12.2081942040
H       16.1933064275     -0.8909694846     9.5123303149
95
# Point 3 Energy = -8505.07579221
C       18.0258118567     5.1545386329     9.1365211989
H       16.7205215718     3.7054553127     8.2022196277
C       16.6881357712     4.7600437319     8.5228086518
H       16.5091954538     5.3532511391     7.6110017863
H       15.6593994117     4.3379771746     10.3837411522
C       15.5144305479     4.9549480087     9.4794213543
H       14.5569093248     4.6565982665     9.0269238564
H       15.4284513676     6.0206550123     9.7598045702
H       18.2350586958     4.5651414747     10.0441300325
H       18.0315866077     6.2197722620     9.4168929256
H       18.8538220249     4.9820007066     8.4351503684
H       16.1695074769     5.2002414554     5.9784028095
Al       16.4724611346     3.4733912679     4.3097321876
O       16.3241664807     5.2638575530     5.0151463242
O       18.0777745866     3.2229756299     3.7826924030
O       15.3159041745     3.3680023102     3.0457388904
O       16.0355036337     2.6625350449     5.7645527895
Si       16.5352603275     6.8618443875     4.4590892452
Si       18.8515373989     2.6121061373     2.4777982075
Si       13.9106501364     2.9317552177     2.3785329783
Si       15.6613373261     1.2037461211     6.3419509417
O       15.4892883170     7.2018003362     3.2738717436
O       16.3021675861     7.7491111790     5.7895204525
O       18.0358974243     7.0073681455     3.8912394354
O       12.6647701582     3.7924627808     3.0516661806
O       14.0230191277     1.1109604169     6.5367532524
O       16.3798497462     1.0124442841     7.8107386226
Si       14.1003310213     7.7846358305     2.5835285211
Si       15.8939997131     9.1386263568     6.5693061393
Si       18.8930580428     7.6485989433     2.6214386357
Si       11.6399169308     3.8170682797     4.3149688582
Si       12.4524046014     1.5487429417     6.3824385581
Si       16.0832490584     0.5667313614     9.3359111028
O       12.2841447071     7.6338117067     5.7675614829
O       12.8263746868     7.0186100052     3.2396763494
O       11.3523509383     5.3783202392     4.7513102874
O       12.2847935630     2.9894632947     5.5802806604
O       14.2762832256     9.1893949638     6.6966389723
Si       11.6842951526     6.9318150348     4.4104170801
Si       12.6515527826     8.9912343443     6.6100308309
O       16.6067157432     9.0960786560     8.0326328218
Si       16.3860781134     9.5972864821     9.5748141152
O       16.3599271418     7.0715232917     13.1902836858
O       14.6138351486     5.0575244523     12.9234097085
O       17.9110688412     4.9418979542     12.7113712471
O       17.4604409165     8.8417874579     10.5323877341
O       14.8580058354     9.2283059121     10.0177582066
O       18.8550371984     7.3930942593     12.2843165374
O       14.0669331000     7.4445589487     11.8815669028
O       16.2122622114     2.9204230455     13.1352081118
O       18.6794788927     2.4439726417     12.2051761757
O       13.9648392011     2.8037595633     11.6733344772
Si       14.7695990409     6.6612398341     13.1326242317
Si       17.8938288136     6.4850169035     13.2400643620
Si       18.7567782339     8.8487081115     11.5411042685
Si       13.8378807378     8.9570727471     11.2797117738
Si       14.6568808044     3.4317040103     13.0101663298
Si       17.7862978422     3.3830970187     13.1905859881
O       17.1635862509     1.2917769864     10.3305365195
O       14.5673932279     1.0325723456     9.7416259761
Si       18.4658594051     1.0879716815     11.3057097166
Si       13.5746850960     1.3475317431     11.0045122526
H       18.4194494947     3.5515804975     1.3175612833
H       18.5436494947     1.0979404975     2.3111612833
H       20.3358094947     2.6867804975     2.7628812833
H       13.9126985137     3.2689524239     0.9499000650
H       13.5989785137     1.4758724239     2.5672600650
H       16.1843934889     0.0698716962     5.5284135021
H       10.5339101150     7.6985972093     3.8880907931
H       10.3610798573     3.2394974689     3.8878149354
H       14.1164729845     7.4963428729     1.1493797084
H       14.0171129845     9.2553828729     2.8403397084
H       16.3658464799     10.3195821150     5.8336419179
H       18.5193711462     6.9748599220     1.3787325176
H       18.6730111462     9.1239799220     2.5167725176
H       20.2839311462     7.2959399220     2.8479725176
H       12.1154907254     10.1541507540     5.8838198932
H       12.0989307254     8.8698307540     7.9611798932
H       11.7931988709     0.4939914418     5.5822525114
H       11.7711188709     1.7019514418     7.6982525114
H       19.6784352552     0.8610097410     10.5071142040
H       12.4753569618     9.0575378263     10.7653943686
H       16.5846127519     11.0499549251     9.6722025559
H       18.5673487615     9.9053886554     12.5591457682
H       14.0890369618     9.9572978263     12.3468743686
H       12.2095813105     1.4162945459     10.4922184069
H       13.7257413105     0.2874545459     12.0322984069
H       19.9795487615     9.0727886554     10.7605457682
H       14.1157344261     7.0688311932     14.3838673653
H       18.3851528079     6.5441333588     14.6187825757
H       13.9181169672     2.9703883273     14.1909907331
H       18.2799503302     3.2746997680     14.5651443058
H       18.2101152552     -0.0543902590     12.2081942040
H       16.1933064275     -0.8909694846     9.5123303149
95
# Point 4 Energy = -8505.07432879
C       18.0071032200     5.1869486494     9.2583733600
H       16.7355638151     4.8450320188     7.5429068981
C       16.6503467740     5.2442024538     8.5673013123
H       16.3316116368     6.2943211633     8.4625872570
H       15.8546671174     3.4065341008     9.3975888261
C       15.5684429454     4.4699729274     9.3161218763
H       14.5972165360     4.5113148966     8.8007350798
H       15.4250831915     4.9001862826     10.3241412385
H       18.3551471108     4.1463951364     9.3634489579
H       17.9547497813     5.6288545826     10.2660154598
H       18.7704965518     5.7320329042     8.6861802172
H       16.1695074769     5.2002414554     5.9784028095
Al       16.4724611346     3.4733912679     4.3097321876
O       16.3241664807     5.2638575530     5.0151463242
O       18.0777745866     3.2229756299     3.7826924030
O       15.3159041745     3.3680023102     3.0457388904
O       16.0355036337     2.6625350449     5.7645527895
Si       16.5352603275     6.8618443875     4.4590892452
Si       18.8515373989     2.6121061373     2.4777982075
Si       13.9106501364     2.9317552177     2.3785329783
Si       15.6613373261     1.2037461211     6.3419509417
O       15.4892883170     7.2018003362     3.2738717436
O       16.3021675861     7.7491111790     5.7895204525
O       18.0358974243     7.0073681455     3.8912394354
O       12.6647701582     3.7924627808     3.0516661806
O       14.0230191277     1.1109604169     6.5367532524
O       16.3798497462     1.0124442841     7.8107386226
Si       14.1003310213     7.7846358305     2.5835285211
Si       15.8939997131     9.1386263568     6.5693061393
Si       18.8930580428     7.6485989433     2.6214386357
Si       11.6399169308     3.8170682797     4.3149688582
Si       12.4524046014     1.5487429417     6.3824385581
Si       16.0832490584     0.5667313614     9.3359111028
O       12.2841447071     7.6338117067     5.7675614829
O       12.8263746868     7.0186100052     3.2396763494
O       11.3523509383     5.3783202392     4.7513102874
O       12.2847935630     2.9894632947     5.5802806604
O       14.2762832256     9.1893949638     6.6966389723
Si       11.6842951526     6.9318150348     4.4104170801
Si       12.6515527826     8.9912343443     6.6100308309
O       16.6067157432     9.0960786560     8.0326328218
Si       16.3860781134     9.5972864821     9.5748141152
O       16.3599271418     7.0715232917     13.1902836858
O       14.6138351486     5.0575244523     12.9234097085
O       17.9110688412     4.9418979542     12.7113712471
O       17.4604409165     8.8417874579     10.5323877341
O       14.8580058354     9.2283059121     10.0177582066
O       18.8550371984     7.3930942593     12.2843165374
O       14.0669331000     7.4445589487     11.8815669028
O       16.2122622114     2.9204230455     13.1352081118
O       18.6794788927     2.4439726417     12.2051761757
O       13.9648392011     2.8037595633     11.6733344772
Si       14.7695990409     6.6612398341     13.1326242317
Si       17.8938288136     6.4850169035     13.2400643620
Si       18.7567782339     8.8487081115     11.5411042685
Si       13.8378807378     8.9570727471     11.2797117738
Si       14.6568808044     3.4317040103     13.0101663298
Si       17.7862978422     3.3830970187     13.1905859881
O       17.1635862509     1.2917769864     10.3305365195
O       14.5673932279     1.0325723456     9.7416259761
Si       18.4658594051     1.0879716815     11.3057097166
Si       13.5746850960     1.3475317431     11.0045122526
H       18.4194494947     3.5515804975     1.3175612833
H       18.5436494947     1.0979404975     2.3111612833
H       20.3358094947     2.6867804975     2.7628812833
H       13.9126985137     3.2689524239     0.9499000650
H       13.5989785137     1.4758724239     2.5672600650
H       16.1843934889     0.0698716962     5.5284135021
H       10.5339101150     7.6985972093     3.8880907931
H       10.3610798573     3.2394974689     3.8878149354
H       14.1164729845     7.4963428729     1.1493797084
H       14.0171129845     9.2553828729     2.8403397084
H       16.3658464799     10.3195821150     5.8336419179
H       18.5193711462     6.9748599220     1.3787325176
H       18.6730111462     9.1239799220     2.5167725176
H       20.2839311462     7.2959399220     2.8479725176
H       12.1154907254     10.1541507540     5.8838198932
H       12.0989307254     8.8698307540     7.9611798932
H       11.7931988709     0.4939914418     5.5822525114
H       11.7711188709     1.7019514418     7.6982525114
H       19.6784352552     0.8610097410     10.5071142040
H       12.4753569618     9.0575378263     10.7653943686
H       16.5846127519     11.0499549251     9.6722025559
H       18.5673487615     9.9053886554     12.5591457682
H       14.0890369618     9.9572978263     12.3468743686
H       12.2095813105     1.4162945459     10.4922184069
H       13.7257413105     0.2874545459     12.0322984069
H       19.9795487615     9.0727886554     10.7605457682
H       14.1157344261     7.0688311932     14.3838673653
H       18.3851528079     6.5441333588     14.6187825757
H       13.9181169672     2.9703883273     14.1909907331
H       18.2799503302     3.2746997680     14.5651443058
H       18.2101152552     -0.0543902590     12.2081942040
H       16.1933064275     -0.8909694846     9.5123303149
95
# Point 5 Energy = -8505.07525993
C       17.9983520049     5.1100882947     9.3596861110
H       16.5904540983     6.0624928496     8.0227890804
C       16.5780198362     5.5040673370     8.9735725637
H       16.1658650086     6.1927693290     9.7293002855
H       16.0234304096     3.6206536304     8.0545013885
C       15.6447967523     4.3038132354     8.8351375304
H       14.6259198797     4.6020968944     8.5461215719
H       15.5705198035     3.7696809396     9.7999816681
H       18.4388233083     4.4308443969     8.6116621790
H       18.0133127379     4.5953549733     10.3334366550
H       18.6524624743     5.9902094895     9.4290935528
H       16.1695074769     5.2002414554     5.9784028095
Al       16.4724611346     3.4733912679     4.3097321876
O       16.3241664807     5.2638575530     5.0151463242
O       18.0777745866     3.2229756299     3.7826924030
O       15.3159041745     3.3680023102     3.0457388904
O       16.0355036337     2.6625350449     5.7645527895
Si       16.5352603275     6.8618443875     4.4590892452
Si       18.8515373989     2.6121061373     2.4777982075
Si       13.9106501364     2.9317552177     2.3785329783
Si       15.6613373261     1.2037461211     6.3419509417
O       15.4892883170     7.2018003362     3.2738717436
O       16.3021675861     7.7491111790     5.7895204525
O       18.0358974243     7.0073681455     3.8912394354
O       12.6647701582     3.7924627808     3.0516661806
O       14.0230191277     1.1109604169     6.5367532524
O       16.3798497462     1.0124442841     7.8107386226
Si       14.1003310213     7.7846358305     2.5835285211
Si       15.8939997131     9.1386263568     6.5693061393
Si       18.8930580428     7.6485989433     2.6214386357
Si       11.6399169308     3.8170682797     4.3149688582
Si       12.4524046014     1.5487429417     6.3824385581
Si       16.0832490584     0.5667313614     9.3359111028
O       12.2841447071     7.6338117067     5.7675614829
O       12.8263746868     7.0186100052     3.2396763494
O       11.3523509383     5.3783202392     4.7513102874
O       12.2847935630     2.9894632947     5.5802806604
O       14.2762832256     9.1893949638     6.6966389723
Si       11.6842951526     6.9318150348     4.4104170801
Si       12.6515527826     8.9912343443     6.6100308309
O       16.6067157432     9.0960786560     8.0326328218
Si       16.3860781134     9.5972864821     9.5748141152
O       16.3599271418     7.0715232917     13.1902836858
O       14.6138351486     5.0575244523     12.9234097085
O       17.9110688412     4.9418979542     12.7113712471
O       17.4604409165     8.8417874579     10.5323877341
O       14.8580058354     9.2283059121     10.0177582066
O       18.8550371984     7.3930942593     12.2843165374
O       14.0669331000     7.4445589487     11.8815669028
O       16.2122622114     2.9204230455     13.1352081118
O       18.6794788927     2.4439726417     12.2051761757
O       13.9648392011     2.8037595633     11.6733344772
Si       14.7695990409     6.6612398341     13.1326242317
Si       17.8938288136     6.4850169035     13.2400643620
Si       18.7567782339     8.8487081115     11.5411042685