Q-Chem Developer Version!
                  Welcome to Q-Chem
     A Quantum Leap Into The Future Of Chemistry


 Q-Chem 5.1, Q-Chem, Inc., Pleasanton, CA (2018)

 Yihan Shao,  Zhengting Gan,  E. Epifanovsky,  A. T. B. Gilbert,  M. Wormit,  
 J. Kussmann,  A. W. Lange,  A. Behn,  Jia Deng,  Xintian Feng,  D. Ghosh,  
 M. Goldey,  P. R. Horn,  L. D. Jacobson,  I. Kaliman,  T. Kus,  A. Landau,  
 Jie Liu,  E. I. Proynov,  R. M. Richard,  R. P. Steele,  E. J. Sundstrom,  
 H. L. Woodcock III,  P. M. Zimmerman,  D. Zuev,  B. Albrecht,  E. Alguire,  
 S. A. Baeppler,  D. Barton,  Z. Benda,  Y. A. Bernard,  E. J. Berquist,  
 K. B. Bravaya,  H. Burton,  D. Casanova,  Chun-Min Chang,  Yunqing Chen,  
 A. Chien,  K. D. Closser,  M. P. Coons,  S. Coriani,  S. Dasgupta,  
 A. L. Dempwolff,  M. Diedenhofen,  Hainam Do,  R. G. Edgar,  Po-Tung Fang,  
 S. Faraji,  S. Fatehi,  Qingguo Feng,  K. D. Fenk,  J. Fosso-Tande,  
 Qinghui Ge,  A. Ghysels,  G. Gidofalvi,  J. Gomes,  J. Gonthier,  A. Gunina,  
 D. Hait,  M. W. D. Hanson-Heine,  P. H. P. Harbach,  A. W. Hauser,  
 J. E. Herr,  E. G. Hohenstein,  Z. C. Holden,  Kerwin Hui,  B. C. Huynh,  
 T.-C. Jagau,  Hyunjun Ji,  B. Kaduk,  K. Khistyaev,  Jaehoon Kim,  
 P. Klunzinger,  K. Koh,  D. Kosenkov,  L. Koulias,  T. Kowalczyk,  
 C. M. Krauter,  A. Kunitsa,  Ka Un Lao,  A. Laurent,  K. V. Lawler,  
 Joonho Lee,  D. Lefrancois,  S. Lehtola,  D. S. Levine,  Yi-Pei Li,  
 You-Sheng Lin,  Fenglai Liu,  E. Livshits,  A. Luenser,  P. Manohar,  
 E. Mansoor,  S. F. Manzer,  Shan-Ping Mao,  Yuezhi Mao,  N. Mardirossian,  
 A. V. Marenich,  T. Markovich,  L. A. Martinez-Martinez,  S. A. Maurer,  
 N. J. Mayhall,  S. C. McKenzie,  J.-M. Mewes,  A. F. Morrison,  
 J. W. Mullinax,  K. Nanda,  T. S. Nguyen-Beck,  R. Olivares-Amaya,  
 J. A. Parkhill,  T. M. Perrine,  F. Plasser,  P. Pokhilko,  S. Prager,  
 A. Prociuk,  E. Ramos,  D. R. Rehn,  F. Rob,  M. Schneider,  N. Sergueev,  
 S. M. Sharada,  S. Sharma,  D. W. Small,  T. Stauch,  T. Stein,  
 Yu-Chuan Su,  A. J. W. Thom,  A. Tkatchenko,  T. Tsuchimochi,  N. M. Tubman,  
 L. Vogt,  M. L. Vidal,  O. Vydrov,  M. A. Watson,  J. Wenzel,  
 M. de Wergifosse,  T. A. Wesolowski,  A. White,  J. Witte,  A. Yamada,  
 Jun Yang,  K. Yao,  S. Yeganeh,  S. R. Yost,  Zhi-Qiang You,  A. Zech,  
 Igor Ying Zhang,  Xing Zhang,  Yan Zhao,  Ying Zhu,  B. R. Brooks,  
 G. K. L. Chan,  C. J. Cramer,  M. S. Gordon,  W. J. Hehre,  A. Klamt,  
 M. W. Schmidt,  C. D. Sherrill,  D. G. Truhlar,  A. Aspuru-Guzik,  R. Baer,  
 A. T. Bell,  N. A. Besley,  Jeng-Da Chai,  A. E. DePrince, III,  
 R. A. DiStasio Jr.,  A. Dreuw,  B. D. Dunietz,  T. R. Furlani,  
 Chao-Ping Hsu,  Yousung Jung,  Jing Kong,  D. S. Lambrecht,  WanZhen Liang,  
 C. Ochsenfeld,  V. A. Rassolov,  L. V. Slipchenko,  J. E. Subotnik,  
 T. Van Voorhis,  J. M. Herbert,  A. I. Krylov,  P. M. W. Gill,  M. Head-Gordon

 Contributors to earlier versions of Q-Chem not listed above: 
 R. D. Adamson,  B. Austin,  J. Baker,  G. J. O. Beran,  K. Brandhorst,  
 S. T. Brown,  E. F. C. Byrd,  A. K. Chakraborty,  C.-L. Cheng,  
 Siu Hung Chien,  D. M. Chipman,  D. L. Crittenden,  H. Dachsel,  
 R. J. Doerksen,  A. D. Dutoi,  L. Fusti-Molnar,  W. A. Goddard III,  
 A. Golubeva-Zadorozhnaya,  S. R. Gwaltney,  G. Hawkins,  A. Heyden,  
 S. Hirata,  G. Kedziora,  F. J. Keil,  C. Kelley,  Jihan Kim,  R. A. King,  
 R. Z. Khaliullin,  P. P. Korambath,  W. Kurlancheek,  A. M. Lee,  M. S. Lee,  
 S. V. Levchenko,  Ching Yeh Lin,  D. Liotard,  R. C. Lochan,  I. Lotan,  
 P. E. Maslen,  N. Nair,  D. P. O'Neill,  D. Neuhauser,  E. Neuscamman,  
 C. M. Oana,  R. Olson,  B. Peters,  R. Peverati,  P. A. Pieniazek,  
 Y. M. Rhee,  J. Ritchie,  M. A. Rohrdanz,  E. Rosta,  N. J. Russ,  
 H. F. Schaefer III,  N. E. Schultz,  N. Shenvi,  A. C. Simmonett,  A. Sodt,  
 D. Stuck,  K. S. Thanthiriwatte,  V. Vanovschi,  Tao Wang,  A. Warshel,  
 C. F. Williams,  Q. Wu,  X. Xu,  W. Zhang

 Please cite Q-Chem as follows:
 Y. Shao et al., Mol. Phys. 113, 184-215 (2015)
 DOI: 10.1080/00268976.2014.952696

 Q-Chem 5.1.1 for Intel X86 EM64T Linux

 Parts of Q-Chem use Armadillo 8.300.2 (Tropical Shenanigans).
 http://arma.sourceforge.net/

 Q-Chem begins on Thu Jul  1 12:36:40 2021  

Host: n0031.mhg0
0

     Scratch files written to /global/scratch/lbettins/qchem1295//
Input Ideriv = 2
Curr. Ideriv = -1
Max.  Ideriv = 2

Checking the input file for inconsistencies... 	...done.

--------------------------------------------------------------
User input:
--------------------------------------------------------------
$rem
   JOBTYPE  freq
   EXCHANGE   wb97x-d
   BASIS   def2-svp
   UNRESTRICTED   False
   max_scf_cycles   250
   geom_opt_max_cycles   1
   SYM_IGNORE  TRUE
   print_input   true
   geom_opt_dmax   80
   pop_mulliken false
   XC_GRID 000075000302
$end

$molecule
0 1
C       16.8020413789     5.1428254160     8.4025575031
H       15.5517218060     6.8807756561     8.2274322590
C       15.6108743773     5.9778286695     8.8638352423
H       15.8015366961     6.3044524901     9.9030114818
H       14.0816605618     4.8588999310     7.7893058841
C       14.2877560214     5.2187097367     8.8087592065
H       13.4334185179     5.8418693512     9.1148226255
H       14.3201297414     4.3379054948     9.4692715435
H       16.6562205281     4.8045215196     7.3657524029
H       16.9190476663     4.2505916780     9.0372454930
H       17.7414245734     5.7116685615     8.4438450737
$end
--------------------------------------------------------------
 ----------------------------------------------------------------
             Standard Nuclear Orientation (Angstroms)
    I     Atom           X                Y                Z
 ----------------------------------------------------------------
    1      C      16.8020413789     5.1428254160     8.4025575031
    2      H      15.5517218060     6.8807756561     8.2274322590
    3      C      15.6108743773     5.9778286695     8.8638352423
    4      H      15.8015366961     6.3044524901     9.9030114818
    5      H      14.0816605618     4.8588999310     7.7893058841
    6      C      14.2877560214     5.2187097367     8.8087592065
    7      H      13.4334185179     5.8418693512     9.1148226255
    8      H      14.3201297414     4.3379054948     9.4692715435
    9      H      16.6562205281     4.8045215196     7.3657524029
   10      H      16.9190476663     4.2505916780     9.0372454930
   11      H      17.7414245734     5.7116685615     8.4438450737
 ----------------------------------------------------------------
 Nuclear Repulsion Energy =    82.3162500823 hartrees
 There are       13 alpha and       13 beta electrons
 Requested basis set is def2-SVP
 There are 42 shells and 82 basis functions

 Total QAlloc Memory Limit   2000 MB
 Mega-Array Size       188 MB
 MEM_STATIC part       192 MB

                       Distance Matrix (Angstroms)
             C (  1)   H (  2)   C (  3)   H (  4)   H (  5)   C (  6)
   H (  2)  2.148125
   C (  3)  1.526069  1.106264
   H (  4)  2.145169  1.789447  1.105858
   H (  5)  2.803063  2.537916  2.178327  3.084696
   C (  6)  2.548017  2.167490  1.526413  2.160499  1.100556
   H (  7)  3.513347  2.520714  2.196086  2.538348  1.772975  1.100861
   H (  8)  2.818805  3.086288  2.172999  2.500001  1.774989  1.101427
   H (  9)  1.100308  2.504644  2.171094  3.068870  2.609734  2.804183
   H ( 10)  1.101181  3.072986  2.173646  2.493336  3.158822  2.813033
   H ( 11)  1.098967  2.491675  2.187802  2.498745  3.814382  3.507705
             H (  7)   H (  8)   H (  9)   H ( 10)
   H (  8)  1.781516
   H (  9)  3.810747  3.178025
   H ( 10)  3.832466  2.636028  1.780395
   H ( 11)  4.361889  3.826746  1.778445  1.778531
 
 A cutoff of  1.0D-11 yielded    899 shell pairs
 There are      3459 function pairs (      3726 Cartesian)
 
 -------------------------------------------------------
 OpenMP Integral Computing Module                       
 Release: version 1.0, May 2013, Q-Chem Inc. Pittsburgh 
 -------------------------------------------------------
 Integral Job Info:
 Integral job number is                      11
 Integral operator is                         1
 short-range coefficients              22203600
 long-range coefficients              100000000
 Omega coefficients                         200
 if combine SR and LR in K                    1
 Integral screening is                        0
 Integral computing path is                   2
 max size of driver memory is            800000
 size of driver memory is                593474
 size of scratch memory is              1848772
 max col of scratch BK array               1296
 max len of scratch array in speh3          155
 max len of scratch index in speh4           18
 max int batch size is                      520
 min int batch size is                       52
 fixed nKL is                                52
 max L of basis functions is                  2
 order of int derivative is                   0
 number of shells is                         42
 number of basis is                          85
 number of cartesian basis is                85
 number of contracted shell pairs           899
 number of primitive shell pairs           2499
 maxK2 (contraction) of shell pair           25
 max number of K2 of shell pair               1
 max number of CS2 of shell pair            164
 max number of PS2 of shell pair            348
 mem total for path MDJ                  512034
 -------------------------------------------------------
 Smallest overlap matrix eigenvalue = 2.98E-03
 Guess from superposition of atomic densities
 Warning:  Energy on first SCF cycle will be non-variational
 SAD guess density has 26.000000 electrons

 -----------------------------------------------------------------------
  General SCF calculation program by
  Eric Jon Sundstrom, Paul Horn, Yuezhi Mao, Dmitri Zuev, Alec White,
  David Stuck, Shaama M.S., Shane Yost, Joonho Lee, David Small,
  Daniel Levine, Susi Lehtola, Hugh Burton, Evgeny Epifanovsky
 -----------------------------------------------------------------------
 Exchange:     0.2220 Hartree-Fock + 1.0000 wB97X-D + LR-HF
 Correlation:  1.0000 wB97X-D
 Using Euler-Maclaurin-Lebedev (75,302) quadrature formula
 Dispersion:   Grimme D
 using 32 threads for integral computing
 -------------------------------------------------------
 OpenMP Integral computing Module                
 Release: version 1.0, May 2013, Q-Chem Inc. Pittsburgh 
 -------------------------------------------------------
 using 32 threads for integral computing
 -------------------------------------------------------
 OpenMP Integral computing Module                
 Release: version 1.0, May 2013, Q-Chem Inc. Pittsburgh 
 -------------------------------------------------------
 -------------------------------------------------------
 OpenMP BLAS3 based DFT computing Module                
 Release: version 1.0, May 2013, Q-Chem Inc. Pittsburgh 
 -------------------------------------------------------
 A restricted SCF calculation will be
 performed using DIIS
 SCF converges when DIIS error is below 1.0e-08
 ---------------------------------------
  Cycle       Energy         DIIS error
 ---------------------------------------
    1    -119.5309736155      7.19e-02  
    2    -118.9780852198      6.73e-03  
    3    -118.9982568163      5.06e-03  
    4    -119.0205114983      2.53e-04  
    5    -119.0205764396      1.11e-04  
    6    -119.0205864965      2.65e-05  
    7    -119.0205871165      3.74e-06  
    8    -119.0205871370      6.23e-07  
    9    -119.0205871376      9.88e-08  
   10    -119.0205871377      3.05e-08  
   11    -119.0205871377      1.23e-08  
   12    -119.0205871377      1.10e-09  Convergence criterion met
 ---------------------------------------
 SCF time:   CPU 130.38s  wall 4.00s 
 SCF   energy in the final basis set =     -119.0205871377
 Total energy in the final basis set =     -119.0205871377
 
 --------------------------------------------------------------
 
                    Orbital Energies (a.u.)
 --------------------------------------------------------------
 
 Alpha MOs
 -- Occupied --
-10.291 -10.285 -10.284  -0.871  -0.767  -0.667  -0.544  -0.521
 -0.480  -0.461  -0.420  -0.412  -0.406
 -- Virtual --
  0.140   0.189   0.189   0.191   0.218   0.238   0.244   0.250
  0.292   0.337   0.483   0.511   0.516   0.533   0.542   0.705
  0.711   0.721   0.729   0.731   0.772   0.774   0.788   0.789
  0.792   0.800   0.807   0.846   1.063   1.101   1.193   1.232
  1.372   1.447   1.463   1.627   1.631   1.660   1.813   1.830
  1.851   1.881   1.886   1.896   1.914   1.933   1.943   1.949
  1.966   2.050   2.090   2.188   2.317   2.320   2.441   2.475
  2.489   2.556   2.653   2.666   2.696   2.754   2.932   2.957
  2.997   3.022   3.107   3.133   3.156
 --------------------------------------------------------------
 
 -----------------------------------------------------------------
                    Cartesian Multipole Moments
 -----------------------------------------------------------------
    Charge (ESU x 10^10)
                 0.0000
    Dipole Moment (Debye)
         X       0.0027      Y       0.0373      Z       0.0121
       Tot       0.0394
    Quadrupole Moments (Debye-Ang)
        XX     -21.8119     XY       0.6236     YY     -21.3229
        XZ       0.3392     YZ       0.2037     ZZ     -21.1003
    Octopole Moments (Debye-Ang^2)
       XXX   -1020.3268    XXY    -107.0911    XYY    -331.5614
       YYY    -350.3347    XXZ    -182.1861    XYZ       3.9660
       YYZ    -186.6484    XZZ    -326.1730    YZZ    -115.1260
       ZZZ    -552.7548
    Hexadecapole Moments (Debye-Ang^3)
      XXXX  -31974.6892   XXXY   -5310.8630   XXYY   -5829.4170
      XYYY   -5449.8183   YYYY   -3879.2995   XXXZ   -8694.9842
      XXYZ    -945.1745   XYYZ   -2897.3427   YYYZ   -3059.4524
      XXZZ   -6728.8998   XYZZ   -1781.5420   YYZZ   -2282.0308
      XZZZ   -8564.6528   YZZZ   -3025.4962   ZZZZ   -9670.2261
 -----------------------------------------------------------------
 Calculating MO derivatives via CPSCF
 D1JvT checksum  = 184536 6743.4813465588
 D1KAT checksum  = 358248 811.3008702786
 D1JvT checksum  = 184536 3835.5613323143
 D1KAT checksum  = 358248 341.9612331238
   1         3          33      0.182655    0.025509
   2         3          33      0.021574    0.003279
   3         3          33      0.002021    0.000294
   4         3          33      0.000168    0.000028
   5        33           3      0.000005    0.000002
   6        36           0      0.000000    0.000000    Roots Converged
 Time for AOints: 15.9 s (CPU) 0.5 s (wall)
 ------------------------------------------------------------------------------
                     AOints        : Timing summary (seconds)
 ------------------------------------------------------------------------------
     job step          cpu (% of tot)      sys (% of tot)     wall (% of tot)
 ------------------------------------------------------------------------------
  cpscf_lag         0.2672E+03 (41.3)   0.2015E-02 (56.6)   0.9788E+01 (32.4)
  iterzp            0.3617E+03 (55.9)   0.1364E-02 (38.3)   0.1987E+02 (65.7)
  make_fx           0.0000E+00 ( 0.0)   0.0000E+00 ( 0.0)   0.0000E+00 ( 0.0)
  AOints            0.1595E+02 ( 2.5)   0.1510E-03 ( 4.2)   0.5108E+00 ( 1.7)
 ------------------------------------------------------------------------------
   Grand Totals     0.6474E+03          0.3561E-02          0.3025E+02
 ------------------------------------------------------------------------------
 Calculating analytic Hessian of the SCF energy
 Polarizability Matrix (a.u.)
            1           2           3
    1 -37.7806148   0.0447764   0.6839552
    2   0.0447764 -33.7596365  -0.2099610
    3   0.6839552  -0.2099610 -33.2524930
atom: 0 element: 6
atom: 1 element: 1
atom: 2 element: 6
atom: 3 element: 1
atom: 4 element: 1
atom: 5 element: 6
atom: 6 element: 1
atom: 7 element: 1
atom: 8 element: 1
atom: 9 element: 1
atom: 10 element: 1
 
 Direct stationary perturbation theory relativistic correction:
 
 rels  =       0.026226340861
 relv  =      -0.113961095494
 rel2e =       0.000000000000
 E_rel =      -0.087734754633
 
 Hessian of the SCF Energy
            1           2           3           4           5           6
    1   0.5374668   0.0472516   0.0234065  -0.0030985   0.0016220   0.0013756
    2   0.0472516   0.5554015  -0.0155953   0.0223362  -0.0148601  -0.0100254
    3   0.0234065  -0.0155953   0.5758229  -0.0153821   0.0104987   0.0064342
    4  -0.0030985   0.0223362  -0.0153821   0.0574938  -0.0139004   0.0083377
    5   0.0016220  -0.0148601   0.0104987  -0.0139004   0.2357283  -0.1309840
    6   0.0013756  -0.0100254   0.0064342   0.0083377  -0.1309840   0.1424729
    7  -0.1584975   0.0594449   0.0319811  -0.0481648   0.0118708  -0.0099509
    8   0.0564224  -0.1259177  -0.0229924   0.0118711  -0.2172397   0.1220056
    9   0.0307629  -0.0236062  -0.0942116  -0.0098095   0.1202917  -0.1396837
   10   0.0030848   0.0086851   0.0262950  -0.0013344  -0.0005802  -0.0012858
   11  -0.0024456  -0.0061095  -0.0182805   0.0042682   0.0089346   0.0238034
   12  -0.0014006  -0.0024870  -0.0087695  -0.0022934  -0.0061922  -0.0141350
   13   0.0016787  -0.0002544  -0.0015130   0.0009775   0.0003433   0.0004586
   14   0.0010890   0.0004659   0.0005589   0.0005113  -0.0000045  -0.0002532
   15   0.0004008   0.0004241   0.0009117  -0.0003796  -0.0002525   0.0006761
   16  -0.0297954  -0.0131590  -0.0000819   0.0008965   0.0011478   0.0000337
   17   0.0169431   0.0116474   0.0013471  -0.0245526  -0.0124239  -0.0025847
   18   0.0100633   0.0058677   0.0002384   0.0177755   0.0090231   0.0013210
   19  -0.0041546  -0.0048872  -0.0009772   0.0008742  -0.0001012   0.0004242
   20  -0.0027668  -0.0016413  -0.0003265   0.0005966   0.0008293   0.0002279
   21  -0.0001202   0.0000236   0.0004742   0.0003732  -0.0001254  -0.0000382
   22   0.0018384  -0.0009998   0.0006110  -0.0051048  -0.0031504  -0.0001635
   23   0.0008559   0.0009917  -0.0006113  -0.0034302  -0.0007312  -0.0006637
   24  -0.0000999   0.0000141  -0.0000440  -0.0004568  -0.0004549   0.0013185
   25  -0.0525853  -0.0131346  -0.0387223   0.0008875  -0.0005165  -0.0004964
   26  -0.0127679  -0.0713542  -0.0763907  -0.0006332   0.0000784  -0.0001204
   27  -0.0378498  -0.0767557  -0.2918294   0.0002553  -0.0001320   0.0008008
   28  -0.0493324   0.0196272  -0.0154522  -0.0039220   0.0032091   0.0018675
   29   0.0202010  -0.2230270   0.1282709   0.0033381  -0.0011825  -0.0018156
   30  -0.0159403   0.1288097  -0.1412917   0.0021672  -0.0015769   0.0005803
   31  -0.2466051  -0.1249099  -0.0101648   0.0004950   0.0000557  -0.0006008
   32  -0.1264046  -0.1255966  -0.0064787  -0.0004050   0.0008714   0.0004101
   33  -0.0105983  -0.0066696  -0.0477354  -0.0005876  -0.0000956   0.0002530
            7           8           9          10          11          12
    1  -0.1584975   0.0564224   0.0307629   0.0030848  -0.0024456  -0.0014006
    2   0.0594449  -0.1259177  -0.0236062   0.0086851  -0.0061095  -0.0024870
    3   0.0319811  -0.0229924  -0.0942116   0.0262950  -0.0182805  -0.0087695
    4  -0.0481648   0.0118711  -0.0098095  -0.0013344   0.0042682  -0.0022934
    5   0.0118708  -0.2172397   0.1202917  -0.0005802   0.0089346  -0.0061922
    6  -0.0099509   0.1220056  -0.1396837  -0.0012858   0.0238034  -0.0141350
    7   0.4789685   0.0027591   0.0194920  -0.0543042  -0.0127243  -0.0419855
    8   0.0027591   0.5493003  -0.0202568  -0.0132110  -0.0707795  -0.0685455
    9   0.0194920  -0.0202568   0.5973152  -0.0422880  -0.0664351  -0.2795219
   10  -0.0543042  -0.0132110  -0.0422880   0.0641997   0.0140203   0.0433325
   11  -0.0127243  -0.0707795  -0.0664351   0.0140203   0.0744844   0.0779456
   12  -0.0419855  -0.0685455  -0.2795219   0.0433325   0.0779456   0.2973786
   13  -0.0054593  -0.0084785  -0.0277930  -0.0050354  -0.0032648  -0.0000023
   14  -0.0026521  -0.0057771  -0.0165477  -0.0033622  -0.0011014   0.0001167
   15   0.0006985   0.0002633   0.0002602   0.0001494  -0.0002834   0.0015676
   16  -0.1781663  -0.0576187  -0.0045121  -0.0059026  -0.0030354   0.0006229
   17  -0.0613035  -0.1177441  -0.0035485  -0.0090545  -0.0053841   0.0006417
   18  -0.0057781  -0.0037085  -0.0821475  -0.0279228  -0.0157761   0.0005997
   19  -0.0175140   0.0179216   0.0079253   0.0005971   0.0002901  -0.0005346
   20  -0.0147116   0.0116850   0.0062715   0.0007583   0.0005640  -0.0000150
   21  -0.0022913   0.0016870  -0.0008922  -0.0000990   0.0004983   0.0002624
   22   0.0007993  -0.0236342   0.0187323   0.0011052   0.0005188  -0.0001903
   23   0.0011719  -0.0136892   0.0099613   0.0002377   0.0001087  -0.0003116
   24  -0.0003874  -0.0026786   0.0014516   0.0005002  -0.0004270   0.0007074
   25   0.0031564   0.0076194   0.0258957  -0.0039905   0.0032549   0.0020083
   26  -0.0029302  -0.0061482  -0.0184657   0.0035327  -0.0015362  -0.0011699
   27  -0.0017792  -0.0024645  -0.0085805   0.0018498  -0.0014341   0.0009366
   28  -0.0029650   0.0211113  -0.0160146   0.0008736  -0.0007146   0.0000493
   29   0.0011815  -0.0150844   0.0107750  -0.0003609   0.0001426  -0.0002081
   30   0.0015938  -0.0099523   0.0067984  -0.0005936  -0.0001965   0.0008511
   31  -0.0178531  -0.0147625  -0.0023909   0.0007069  -0.0001677   0.0003937
   32   0.0178935   0.0113945   0.0015607  -0.0006652   0.0006765   0.0002253
   33   0.0084070   0.0066429  -0.0007880   0.0000622   0.0005853   0.0001230
           13          14          15          16          17          18
    1   0.0016787   0.0010890   0.0004008  -0.0297954   0.0169431   0.0100633
    2  -0.0002544   0.0004659   0.0004241  -0.0131590   0.0116474   0.0058677
    3  -0.0015130   0.0005589   0.0009117  -0.0000819   0.0013471   0.0002384
    4   0.0009775   0.0005113  -0.0003796   0.0008965  -0.0245526   0.0177755
    5   0.0003433  -0.0000045  -0.0002525   0.0011478  -0.0124239   0.0090231
    6   0.0004586  -0.0002532   0.0006761   0.0000337  -0.0025847   0.0013210
    7  -0.0054593  -0.0026521   0.0006985  -0.1781663  -0.0613035  -0.0057781
    8  -0.0084785  -0.0057771   0.0002633  -0.0576187  -0.1177441  -0.0037085
    9  -0.0277930  -0.0165477   0.0002602  -0.0045121  -0.0035485  -0.0821475
   10  -0.0050354  -0.0033622   0.0001494  -0.0059026  -0.0090545  -0.0279228
   11  -0.0032648  -0.0011014  -0.0002834  -0.0030354  -0.0053841  -0.0157761
   12  -0.0000023   0.0001167   0.0015676   0.0006229   0.0006417   0.0005997
   13   0.0588732   0.0196731   0.0488693  -0.0546253  -0.0144895  -0.0435527
   14   0.0196731   0.0769615   0.0891777  -0.0148106  -0.0747300  -0.0809187
   15   0.0488693   0.0891777   0.3034578  -0.0443808  -0.0810200  -0.2852370
   16  -0.0546253  -0.0148106  -0.0443808   0.5218419  -0.0457642  -0.0042055
   17  -0.0144895  -0.0747300  -0.0810200  -0.0457642   0.5574148   0.0005073
   18  -0.0435527  -0.0809187  -0.2852370  -0.0042055   0.0005073   0.5816778
   19   0.0049762  -0.0045866  -0.0021119  -0.2072084   0.1211329   0.0589547
   20   0.0065782  -0.0056615  -0.0010124   0.1222944  -0.1401461  -0.0449895
   21   0.0231918  -0.0167187  -0.0065357   0.0591733  -0.0447142  -0.0692678
   22  -0.0013924   0.0043218  -0.0025418  -0.0474695   0.0110937  -0.0074950
   23  -0.0005460   0.0095345  -0.0075480   0.0103950  -0.2180415   0.1306768
   24  -0.0008576   0.0240973  -0.0152874  -0.0068901   0.1309177  -0.1478682
   25  -0.0003380  -0.0002517  -0.0006781   0.0018793   0.0003326   0.0012368
   26   0.0003554   0.0004509   0.0001683  -0.0009288   0.0004598   0.0008176
   27   0.0008434   0.0002453   0.0000395  -0.0007138   0.0003673   0.0006400
   28  -0.0000248  -0.0000589  -0.0000008   0.0015495   0.0008876  -0.0011442
   29   0.0000576   0.0000081  -0.0000450  -0.0011100   0.0010195  -0.0002374
   30   0.0000441   0.0001202  -0.0001036  -0.0004058  -0.0002942   0.0003156
   31   0.0003694   0.0001269  -0.0000250  -0.0029996   0.0047745   0.0020679
   32   0.0000255  -0.0001464   0.0001279   0.0025894  -0.0020719  -0.0012625
   33   0.0003115   0.0001221   0.0002508   0.0013603  -0.0016195  -0.0002720
           19          20          21          22          23          24
    1  -0.0041546  -0.0027668  -0.0001202   0.0018384   0.0008559  -0.0000999
    2  -0.0048872  -0.0016413   0.0000236  -0.0009998   0.0009917   0.0000141
    3  -0.0009772  -0.0003265   0.0004742   0.0006110  -0.0006113  -0.0000440
    4   0.0008742   0.0005966   0.0003732  -0.0051048  -0.0034302  -0.0004568
    5  -0.0001012   0.0008293  -0.0001254  -0.0031504  -0.0007312  -0.0004549
    6   0.0004242   0.0002279  -0.0000382  -0.0001635  -0.0006637   0.0013185
    7  -0.0175140  -0.0147116  -0.0022913   0.0007993   0.0011719  -0.0003874
    8   0.0179216   0.0116850   0.0016870  -0.0236342  -0.0136892  -0.0026786
    9   0.0079253   0.0062715  -0.0008922   0.0187323   0.0099613   0.0014516
   10   0.0005971   0.0007583  -0.0000990   0.0011052   0.0002377   0.0005002
   11   0.0002901   0.0005640   0.0004983   0.0005188   0.0001087  -0.0004270
   12  -0.0005346  -0.0000150   0.0002624  -0.0001903  -0.0003116   0.0007074
   13   0.0049762   0.0065782   0.0231918  -0.0013924  -0.0005460  -0.0008576
   14  -0.0045866  -0.0056615  -0.0167187   0.0043218   0.0095345   0.0240973
   15  -0.0021119  -0.0010124  -0.0065357  -0.0025418  -0.0075480  -0.0152874
   16  -0.2072084   0.1222944   0.0591733  -0.0474695   0.0103950  -0.0068901
   17   0.1211329  -0.1401461  -0.0447142   0.0110937  -0.2180415   0.1309177
   18   0.0589547  -0.0449895  -0.0692678  -0.0074950   0.1306768  -0.1478682
   19   0.2234764  -0.1293902  -0.0642118  -0.0001948  -0.0011603   0.0000294
   20  -0.1293902   0.1463517   0.0487381   0.0177679  -0.0125848  -0.0090068
   21  -0.0642118   0.0487381   0.0690300  -0.0159371   0.0108040   0.0061418
   22  -0.0001948   0.0177679  -0.0159371   0.0505337  -0.0069001   0.0077057
   23  -0.0011603  -0.0125848   0.0108040  -0.0069001   0.2337907  -0.1422865
   24   0.0000294  -0.0090068   0.0061418   0.0077057  -0.1422865   0.1536020
   25   0.0002628  -0.0000132  -0.0003181  -0.0000431  -0.0000512  -0.0000703
   26  -0.0001015  -0.0001336   0.0001628   0.0000869   0.0000035   0.0000916
   27   0.0000332   0.0001259   0.0003463  -0.0000320  -0.0000328  -0.0000673
   28   0.0003079  -0.0002532   0.0002059  -0.0003359  -0.0005871   0.0004773
   29  -0.0001038   0.0001413  -0.0002399   0.0007204   0.0004959   0.0000006
   30  -0.0001480  -0.0001897   0.0000004  -0.0003744   0.0002544  -0.0000180
   31  -0.0014228  -0.0008603   0.0000333   0.0002639   0.0000143   0.0000496
   32   0.0009862   0.0005961  -0.0001155   0.0001751   0.0001218  -0.0002675
   33   0.0006168   0.0001765   0.0004788  -0.0003150  -0.0002425   0.0000636
           25          26          27          28          29          30
    1  -0.0525853  -0.0127679  -0.0378498  -0.0493324   0.0202010  -0.0159403
    2  -0.0131346  -0.0713542  -0.0767557   0.0196272  -0.2230270   0.1288097
    3  -0.0387223  -0.0763907  -0.2918294  -0.0154522   0.1282709  -0.1412917
    4   0.0008875  -0.0006332   0.0002553  -0.0039220   0.0033381   0.0021672
    5  -0.0005165   0.0000784  -0.0001320   0.0032091  -0.0011825  -0.0015769
    6  -0.0004964  -0.0001204   0.0008008   0.0018675  -0.0018156   0.0005803
    7   0.0031564  -0.0029302  -0.0017792  -0.0029650   0.0011815   0.0015938
    8   0.0076194  -0.0061482  -0.0024645   0.0211113  -0.0150844  -0.0099523
    9   0.0258957  -0.0184657  -0.0085805  -0.0160146   0.0107750   0.0067984
   10  -0.0039905   0.0035327   0.0018498   0.0008736  -0.0003609  -0.0005936
   11   0.0032549  -0.0015362  -0.0014341  -0.0007146   0.0001426  -0.0001965
   12   0.0020083  -0.0011699   0.0009366   0.0000493  -0.0002081   0.0008511
   13  -0.0003380   0.0003554   0.0008434  -0.0000248   0.0000576   0.0000441
   14  -0.0002517   0.0004509   0.0002453  -0.0000589   0.0000081   0.0001202
   15  -0.0006781   0.0001683   0.0000395  -0.0000008  -0.0000450  -0.0001036
   16   0.0018793  -0.0009288  -0.0007138   0.0015495  -0.0011100  -0.0004058
   17   0.0003326   0.0004598   0.0003673   0.0008876   0.0010195  -0.0002942
   18   0.0012368   0.0008176   0.0006400  -0.0011442  -0.0002374   0.0003156
   19   0.0002628  -0.0001015   0.0000332   0.0003079  -0.0001038  -0.0001480
   20  -0.0000132  -0.0001336   0.0001259  -0.0002532   0.0001413  -0.0001897
   21  -0.0003181   0.0001628   0.0003463   0.0002059  -0.0002399   0.0000004
   22  -0.0000431   0.0000869  -0.0000320  -0.0003359   0.0007204  -0.0003744
   23  -0.0000512   0.0000035  -0.0000328  -0.0005871   0.0004959   0.0002544
   24  -0.0000703   0.0000916  -0.0000673   0.0004773   0.0000006  -0.0000180
   25   0.0548940   0.0101097   0.0386098  -0.0016383  -0.0010690  -0.0019503
   26   0.0101097   0.0738340   0.0860775   0.0039450   0.0093415   0.0245267
   27   0.0386098   0.0860775   0.3114272  -0.0021160  -0.0070612  -0.0144775
   28  -0.0016383   0.0039450  -0.0021160   0.0514947  -0.0262690   0.0154310
   29  -0.0010690   0.0093415  -0.0070612  -0.0262690   0.2398944  -0.1383258
   30  -0.0019503   0.0245267  -0.0144775   0.0154310  -0.1383258   0.1463638
   31  -0.0024847  -0.0006681   0.0008993   0.0039927   0.0034142   0.0001762
   32  -0.0062803  -0.0049960   0.0010643  -0.0208974  -0.0117492  -0.0031758
   33  -0.0255150  -0.0156979   0.0007642   0.0166966   0.0088867   0.0009812
           31          32          33
    1  -0.2466051  -0.1264046  -0.0105983
    2  -0.1249099  -0.1255966  -0.0066696
    3  -0.0101648  -0.0064787  -0.0477354
    4   0.0004950  -0.0004050  -0.0005876
    5   0.0000557   0.0008714  -0.0000956
    6  -0.0006008   0.0004101   0.0002530
    7  -0.0178531   0.0178935   0.0084070
    8  -0.0147625   0.0113945   0.0066429
    9  -0.0023909   0.0015607  -0.0007880
   10   0.0007069  -0.0006652   0.0000622
   11  -0.0001677   0.0006765   0.0005853
   12   0.0003937   0.0002253   0.0001230
   13   0.0003694   0.0000255   0.0003115
   14   0.0001269  -0.0001464   0.0001221
   15  -0.0000250   0.0001279   0.0002508
   16  -0.0029996   0.0025894   0.0013603
   17   0.0047745  -0.0020719  -0.0016195
   18   0.0020679  -0.0012625  -0.0002720
   19  -0.0014228   0.0009862   0.0006168
   20  -0.0008603   0.0005961   0.0001765
   21   0.0000333  -0.0001155   0.0004788
   22   0.0002639   0.0001751  -0.0003150
   23   0.0000143   0.0001218  -0.0002425
   24   0.0000496  -0.0002675   0.0000636
   25  -0.0024847  -0.0062803  -0.0255150
   26  -0.0006681  -0.0049960  -0.0156979
   27   0.0008993   0.0010643   0.0007642
   28   0.0039927  -0.0208974   0.0166966
   29   0.0034142  -0.0117492   0.0088867
   30   0.0001762  -0.0031758   0.0009812
   31   0.2655372   0.1329828   0.0095614
   32   0.1329828   0.1308998   0.0079118
   33   0.0095614   0.0079118   0.0458808
 Gradient time:  CPU 798.37 s  wall 42.88 s
 **********************************************************************
 **                                                                  **
 **                       VIBRATIONAL ANALYSIS                       **
 **                       --------------------                       **
 **                                                                  **
 **        VIBRATIONAL FREQUENCIES (CM**-1) AND NORMAL MODES         **
 **     FORCE CONSTANTS (mDYN/ANGSTROM) AND REDUCED MASSES (AMU)     **
 **                  INFRARED INTENSITIES (KM/MOL)                   **
 **                                                                  **
 **********************************************************************
 

 Mode:                 1                      2                      3
 Frequency:       215.96                 285.76                 374.02
 Force Cnst:      0.0282                 0.0548                 0.1676
 Red. Mass:       1.0277                 1.1396                 2.0332
 IR Active:          YES                    YES                    YES
 IR Intens:        0.001                  0.003                  0.102
 Raman Active:       YES                    YES                    YES
               X      Y      Z        X      Y      Z        X      Y      Z
 C          0.005 -0.009  0.027    0.003 -0.013  0.038    0.173  0.047 -0.009
 H          0.004 -0.002  0.002   -0.031 -0.035 -0.181   -0.013 -0.148 -0.039
 C         -0.000 -0.002  0.002   -0.013  0.032 -0.087   -0.014 -0.161 -0.055
 H         -0.007 -0.003  0.003   -0.018  0.142 -0.122   -0.017 -0.134 -0.062
 H         -0.181  0.368 -0.119   -0.254  0.251 -0.004   -0.386  0.087  0.081
 C         -0.005  0.010 -0.029    0.009 -0.014  0.035   -0.163  0.057  0.046
 H          0.047 -0.097  0.333    0.061 -0.142  0.439    0.052  0.323  0.110
 H          0.109 -0.219 -0.339    0.239 -0.188 -0.207   -0.360  0.086  0.093
 H         -0.163 -0.365  0.167    0.247  0.215 -0.070    0.397  0.078 -0.050
 H          0.242  0.212  0.294   -0.292 -0.157 -0.109    0.376  0.054 -0.038
 H         -0.055  0.119 -0.350    0.066 -0.147  0.421    0.002  0.323  0.128
 TransDip  -0.000  0.001 -0.001    0.000 -0.000  0.002   -0.000  0.010  0.003

 Mode:                 4                      5                      6
 Frequency:       771.33                 892.22                 918.32
 Force Cnst:      0.3767                 1.1192                 0.5505
 Red. Mass:       1.0748                 2.3863                 1.1079
 IR Active:          YES                    YES                    YES
 IR Intens:        3.696                  1.130                  0.016
 Raman Active:       YES                    YES                    YES
               X      Y      Z        X      Y      Z        X      Y      Z
 C          0.002 -0.006  0.018   -0.200  0.055  0.051   -0.015  0.017 -0.063
 H         -0.079 -0.351 -0.395   -0.013 -0.170 -0.051   -0.321  0.006  0.047
 C          0.010 -0.025  0.068   -0.017 -0.171 -0.056   -0.003 -0.004 -0.000
 H         -0.003  0.521 -0.107   -0.039 -0.182 -0.050    0.351 -0.017 -0.060
 H          0.201  0.218 -0.103   -0.020  0.094  0.014    0.325  0.258 -0.097
 C          0.004 -0.004  0.017    0.212  0.046 -0.020    0.011 -0.013  0.065
 H         -0.010  0.042 -0.114    0.488  0.376  0.058   -0.038  0.048 -0.197
 H         -0.238 -0.136 -0.148    0.025  0.112  0.073   -0.320 -0.179 -0.144
 H         -0.208  0.236 -0.034    0.005  0.117  0.005    0.324 -0.276 -0.012
 H          0.173 -0.149 -0.219    0.026  0.091  0.053   -0.244  0.197  0.239
 H         -0.021  0.042 -0.110   -0.418  0.398  0.190    0.004 -0.034  0.206
 TransDip  -0.008  0.019 -0.058    0.002  0.032  0.011    0.003  0.001 -0.002

 Mode:                 7                      8                      9
 Frequency:       934.25                1087.50                1178.97
 Force Cnst:      0.6082                 1.5397                 1.4957
 Red. Mass:       1.1827                 2.2096                 1.8263
 IR Active:          YES                    YES                    YES
 IR Intens:        2.411                  0.381                  1.593
 Raman Active:       YES                    YES                    YES
               X      Y      Z        X      Y      Z        X      Y      Z
 C         -0.035 -0.078 -0.014   -0.119  0.097  0.051   -0.042 -0.125 -0.035
 H          0.230 -0.008 -0.036    0.544 -0.022 -0.091    0.007  0.179  0.045
 C         -0.032  0.002  0.004    0.238 -0.007 -0.037    0.010  0.184  0.059
 H          0.180 -0.011 -0.030    0.549 -0.011 -0.092    0.015  0.166  0.067
 H          0.309 -0.029 -0.005   -0.188 -0.121  0.004   -0.375  0.028 -0.014
 C         -0.022  0.080  0.024   -0.129 -0.092 -0.012    0.026 -0.126 -0.044
 H         -0.343 -0.333 -0.040   -0.150 -0.115 -0.014    0.303  0.234  0.028
 H          0.338  0.017 -0.075   -0.190 -0.116 -0.031   -0.356 -0.013  0.121
 H          0.293  0.018 -0.091   -0.156  0.139  0.049    0.359  0.002 -0.130
 H          0.344 -0.042 -0.037   -0.149  0.126  0.087    0.378 -0.041  0.000
 H         -0.298  0.351  0.148   -0.150  0.143  0.070   -0.259  0.240  0.120
 TransDip   0.049 -0.003 -0.008    0.019 -0.001 -0.003    0.003  0.038  0.013

 Mode:                10                     11                     12
 Frequency:      1211.87                1320.15                1359.48
 Force Cnst:      1.4467                 1.1536                 1.4246
 Red. Mass:       1.6719                 1.1235                 1.3082
 IR Active:          YES                    YES                    YES
 IR Intens:        0.560                  0.002                  1.152
 Raman Active:       YES                    YES                    YES
               X      Y      Z        X      Y      Z        X      Y      Z
 C         -0.017  0.035 -0.109    0.012 -0.023  0.069   -0.013  0.061  0.021
 H         -0.059 -0.322 -0.204   -0.629  0.024  0.096    0.492 -0.031 -0.090
 C          0.026 -0.055  0.170   -0.004  0.002 -0.001   -0.137  0.004  0.023
 H          0.025  0.388  0.028    0.649 -0.036 -0.107    0.468 -0.027 -0.077
 H         -0.240 -0.271  0.049   -0.110 -0.133  0.008    0.137  0.168 -0.113
 C         -0.017  0.037 -0.112   -0.009  0.022 -0.067   -0.017 -0.055 -0.015
 H          0.025 -0.075  0.230    0.014 -0.031  0.104    0.228  0.239  0.043
 H          0.271  0.214  0.121    0.117  0.117  0.053    0.172  0.089  0.149
 H          0.228 -0.280 -0.033   -0.101  0.147  0.029    0.168 -0.194  0.067
 H         -0.191  0.221  0.197    0.088 -0.127 -0.092    0.127 -0.097 -0.209
 H          0.033 -0.073  0.226   -0.014  0.033 -0.110    0.202 -0.269 -0.116
 TransDip   0.004 -0.009  0.022   -0.001 -0.000 -0.001   -0.034 -0.003  0.004

 Mode:                13                     14                     15
 Frequency:      1408.90                1412.91                1470.90
 Force Cnst:      1.5483                 1.6080                 1.3179
 Red. Mass:       1.3239                 1.3671                 1.0339
 IR Active:          YES                    YES                    YES
 IR Intens:        4.570                  5.556                  0.094
 Raman Active:       YES                    YES                    YES
               X      Y      Z        X      Y      Z        X      Y      Z
 C         -0.123  0.067  0.042   -0.031 -0.016  0.000   -0.006  0.007 -0.035
 H         -0.217 -0.029 -0.005   -0.247  0.058  0.095   -0.068 -0.027 -0.039
 C          0.075 -0.009 -0.015    0.095 -0.001 -0.015   -0.002  0.006 -0.001
 H         -0.199 -0.050  0.041   -0.240  0.077  0.026    0.070 -0.064  0.007
 H         -0.066 -0.139  0.082    0.475  0.120 -0.174   -0.297  0.119  0.034
 C          0.010  0.035  0.010   -0.138 -0.055  0.002    0.004 -0.010  0.029
 H         -0.108 -0.109 -0.020    0.260  0.421  0.095   -0.064  0.125 -0.429
 H         -0.096 -0.077 -0.127    0.512  0.043  0.087    0.290 -0.073 -0.085
 H          0.479 -0.180  0.030    0.064  0.098 -0.049   -0.358 -0.045  0.043
 H          0.449 -0.085 -0.264    0.083  0.054  0.076    0.382  0.108  0.052
 H          0.200 -0.431 -0.166   -0.029 -0.015 -0.003    0.090 -0.188  0.492
 TransDip   0.050 -0.041 -0.021    0.068  0.032 -0.000    0.005 -0.002  0.008

 Mode:                16                     17                     18
 Frequency:      1472.42                1478.58                1489.62
 Force Cnst:      1.3328                 1.3699                 1.3584
 Red. Mass:       1.0434                 1.0635                 1.0390
 IR Active:          YES                    YES                    YES
 IR Intens:        0.128                  1.699                 14.446
 Raman Active:       YES                    YES                    YES
               X      Y      Z        X      Y      Z        X      Y      Z
 C          0.010  0.019  0.002    0.007  0.030  0.009   -0.002  0.010 -0.026
 H          0.065  0.299  0.454   -0.138 -0.035 -0.040    0.005  0.048  0.018
 C         -0.002 -0.048 -0.016    0.051  0.005 -0.005   -0.003  0.010 -0.029
 H         -0.002  0.518 -0.185   -0.117 -0.063  0.046   -0.011 -0.040 -0.015
 H         -0.024 -0.197  0.081   -0.079  0.457 -0.161    0.364 -0.119 -0.052
 C         -0.003  0.011  0.008    0.002 -0.035 -0.010   -0.005  0.010 -0.032
 H          0.064  0.115 -0.048   -0.160 -0.206 -0.068    0.073 -0.150  0.505
 H          0.035 -0.146 -0.199    0.032  0.277  0.393   -0.353  0.091  0.107
 H         -0.068 -0.324  0.121   -0.041 -0.391  0.148   -0.321 -0.101  0.061
 H         -0.056 -0.184 -0.263   -0.107 -0.232 -0.331    0.309  0.045 -0.023
 H         -0.079  0.138  0.112   -0.107  0.194  0.087    0.056 -0.121  0.428
 TransDip  -0.010 -0.006 -0.002   -0.041  0.003  0.004    0.015 -0.038  0.115

 Mode:                19                     20                     21
 Frequency:      1491.83                3020.42                3050.11
 Force Cnst:      1.4286                 5.7021                 5.6850
 Red. Mass:       1.0895                 1.0608                 1.0372
 IR Active:          YES                    YES                    YES
 IR Intens:        5.022                 34.264                 26.926
 Raman Active:       YES                    YES                    YES
               X      Y      Z        X      Y      Z        X      Y      Z
 C         -0.026 -0.015 -0.001    0.002  0.003  0.001   -0.005  0.005  0.002
 H          0.068  0.202  0.351   -0.044  0.582 -0.421   -0.000 -0.028  0.019
 C         -0.009 -0.070 -0.023   -0.006 -0.066 -0.019    0.002  0.003 -0.001
 H         -0.002  0.376 -0.161    0.117  0.194  0.648   -0.004 -0.003 -0.008
 H         -0.086  0.331 -0.105   -0.002  0.001  0.001    0.092  0.172  0.507
 C          0.027 -0.016 -0.011   -0.003  0.003  0.001   -0.042 -0.029  0.002
 H         -0.145 -0.227 -0.030    0.043 -0.038 -0.018    0.418 -0.322 -0.156
 H         -0.055  0.219  0.298   -0.002  0.002 -0.000   -0.028  0.489 -0.374
 H          0.069  0.321 -0.119    0.001 -0.001 -0.007   -0.013 -0.023 -0.075
 H          0.139  0.198  0.260    0.003 -0.008  0.006    0.007 -0.069  0.051
 H          0.110 -0.221 -0.082   -0.035 -0.027 -0.003    0.057  0.039  0.004
 TransDip   0.003  0.067  0.025   -0.020 -0.179 -0.054   -0.153 -0.063  0.006

 Mode:                22                     23                     24
 Frequency:      3055.47                3078.20                3143.66
 Force Cnst:      5.7057                 6.1729                 6.4295
 Red. Mass:       1.0373                 1.1057                 1.1042
 IR Active:          YES                    YES                    YES
 IR Intens:       23.016                 14.107                 16.315
 Raman Active:       YES                    YES                    YES
               X      Y      Z        X      Y      Z        X      Y      Z
 C          0.034 -0.036 -0.012    0.001 -0.003  0.013    0.000  0.012 -0.024
 H          0.003 -0.024  0.014    0.039 -0.548  0.381   -0.001  0.060 -0.043
 C         -0.002  0.002 -0.001   -0.013  0.028 -0.087    0.001 -0.004  0.007
 H          0.003  0.001  0.008    0.119  0.214  0.662   -0.009 -0.011 -0.038
 H          0.014  0.023  0.067   -0.020 -0.040 -0.114   -0.056 -0.124 -0.320
 C         -0.006 -0.004  0.000    0.003 -0.004  0.013    0.038 -0.062  0.052
 H          0.058 -0.042 -0.021   -0.015  0.011  0.010   -0.371  0.273  0.148
 H         -0.002  0.069 -0.052   -0.005  0.074 -0.055   -0.023  0.588 -0.446
 H          0.083  0.168  0.537   -0.019 -0.037 -0.114    0.028  0.059  0.176
 H         -0.062  0.517 -0.377   -0.007  0.069 -0.049    0.019 -0.172  0.123
 H         -0.414 -0.263 -0.022    0.018  0.009  0.005   -0.055 -0.032 -0.008
 TransDip   0.098 -0.109 -0.046   -0.017  0.039 -0.113    0.072 -0.091  0.058

 Mode:                25                     26                     27
 Frequency:      3146.93                3149.63                3161.94
 Force Cnst:      6.4417                 6.4513                 6.5031
 Red. Mass:       1.1040                 1.1038                 1.1040
 IR Active:          YES                    YES                    YES
 IR Intens:       18.309                 55.808                 27.531
 Raman Active:       YES                    YES                    YES
               X      Y      Z        X      Y      Z        X      Y      Z
 C          0.001 -0.012  0.031   -0.004 -0.039  0.072   -0.063 -0.060 -0.034
 H         -0.003  0.018 -0.012   -0.009  0.112 -0.078   -0.001  0.008 -0.004
 C         -0.000 -0.003 -0.002    0.003 -0.006  0.018   -0.001 -0.003 -0.004
 H          0.009  0.012  0.036   -0.022 -0.040 -0.127    0.008  0.018  0.053
 H          0.124  0.206  0.609   -0.068 -0.119 -0.334    0.008  0.011  0.031
 C          0.032 -0.049 -0.064   -0.001  0.000  0.041    0.002 -0.002 -0.003
 H         -0.510  0.379  0.178    0.084 -0.063 -0.025   -0.021  0.016  0.008
 H          0.005  0.003 -0.019   -0.006  0.181 -0.130    0.001 -0.005  0.003
 H         -0.037 -0.077 -0.230   -0.075 -0.174 -0.508    0.063  0.148  0.484
 H         -0.026  0.205 -0.144   -0.068  0.526 -0.371   -0.028  0.137 -0.111
 H          0.040  0.022  0.008    0.191  0.112  0.020    0.710  0.435  0.030
 TransDip   0.055 -0.109 -0.062   -0.006 -0.074  0.227   -0.110 -0.106 -0.070

 STANDARD THERMODYNAMIC QUANTITIES AT   298.15 K  AND     1.00 ATM

   This Molecule has  0 Imaginary Frequencies
   Zero point vibrational energy:       65.162 kcal/mol

   Atom    1 Element C  Has Mass   12.00000
   Atom    2 Element H  Has Mass    1.00783
   Atom    3 Element C  Has Mass   12.00000
   Atom    4 Element H  Has Mass    1.00783
   Atom    5 Element H  Has Mass    1.00783
   Atom    6 Element C  Has Mass   12.00000
   Atom    7 Element H  Has Mass    1.00783
   Atom    8 Element H  Has Mass    1.00783
   Atom    9 Element H  Has Mass    1.00783
   Atom   10 Element H  Has Mass    1.00783
   Atom   11 Element H  Has Mass    1.00783
   Molecular Mass:    44.062640 amu
   Principal axes and moments of inertia in amu*Bohr^2:
                             1           2           3
    Eigenvalues --       61.08472   215.24304   242.05323
          X               0.98691     0.07667     0.14187
          Y              -0.02840     0.94864    -0.31509
          Z              -0.15874     0.30693     0.93840
   Rotational Symmetry Number is   1
   The Molecule is an Asymmetric Top
   Translational Enthalpy:        0.889 kcal/mol
   Rotational Enthalpy:           0.889 kcal/mol
   Vibrational Enthalpy:         66.210 kcal/mol
   gas constant (RT):             0.592 kcal/mol
   Translational Entropy:        37.275  cal/mol.K
   Rotational Entropy:           22.680  cal/mol.K
   Vibrational Entropy:           5.477  cal/mol.K

   Total Enthalpy:               68.580 kcal/mol
   Total Entropy:                65.432  cal/mol.K
Archival summary:
1\1\n0031.mhg0\FREQ\ProcedureUnspecified\BasisUnspecified\38\lbettins\ThuJul112:37:272021ThuJul112:37:272021\0\\#,FREQ,ProcedureUnspecified,BasisUnspecified,\\0,1\C\H,1,1.10586\H,1,1.10626,2,107.983\C,1,1.52607,2,108.124,3,117.007,0\H,4,1.09897,1,111.878,2,-59.2088,0\H,4,1.10031,1,110.463,2,-179.467,0\H,4,1.10118,1,110.613,2,61.0826,0\C,1,1.52641,2,109.284,3,-119.403,0\H,8,1.10056,1,110.998,2,-178.633,0\H,8,1.10086,1,112.405,2,61.1908,0\H,8,1.10143,1,110.523,2,-59.5359,0\\\@

 Total job time:  47.84s(wall), 942.82s(cpu) 
 Thu Jul  1 12:37:27 2021

        *************************************************************
        *                                                           *
        *  Thank you very much for using Q-Chem.  Have a nice day.  *
        *                                                           *
        *************************************************************


