
Running Job 1 of 1 PROP2-MFI-freq.in
qchem PROP2-MFI-freq.in_56610.0 /scr/lance/134488/qchem56610/ 0
/home/mgcf/software-ws/qchem/qchem_540/exe/qcprog.exe_s PROP2-MFI-freq.in_56610.0 /scr/lance/134488/qchem56610/
                  Welcome to Q-Chem
     A Quantum Leap Into The Future Of Chemistry


 Q-Chem 5.4, Q-Chem, Inc., Pleasanton, CA (2021)

 E. Epifanovsky,  A. T. B. Gilbert,  Xintian Feng,  Joonho Lee,  Yuezhi Mao,  
 N. Mardirossian,  P. Pokhilko,  A. White,  M. Wormit,  M. P. Coons,  
 A. L. Dempwolff,  Zhengting Gan,  D. Hait,  P. R. Horn,  L. D. Jacobson,  
 I. Kaliman,  J. Kussmann,  A. W. Lange,  Ka Un Lao,  D. S. Levine,  Jie Liu,  
 S. C. McKenzie,  A. F. Morrison,  K. Nanda,  F. Plasser,  D. R. Rehn,  
 M. L. Vidal,  Zhi-Qiang You,  Ying Zhu,  B. Alam,  B. Albrecht,  
 A. Aldossary,  E. Alguire,  J. H. Andersen,  D. Barton,  K. Begam,  A. Behn,  
 Y. A. Bernard,  E. J. Berquist,  H. Burton,  A. Carreras,  K. Carter-Fenk,  
 R. Chakraborty,  A. D. Chien,  K. D. Closser,  V. Cofer-Shabica,  
 S. Dasgupta,  Jia Deng,  M. de Wergifosse,  M. Diedenhofen,  Hainam Do,  
 S. Ehlert,  Po-Tung Fang,  S. Fatehi,  Qingguo Feng,  J. Gayvert,  
 Qinghui Ge,  G. Gidofalvi,  M. Goldey,  J. Gomes,  C. Gonzalez-Espinoza,  
 S. Gulania,  A. Gunina,  M. W. D. Hanson-Heine,  P. H. P. Harbach,  
 A. W. Hauser,  M. F. Herbst,  M. Hernandez Vera,  M. Hodecker,  
 Z. C. Holden,  S. Houck,  Xunkun Huang,  Kerwin Hui,  B. C. Huynh,  
 M. Ivanov,  Hyunjun Ji,  Hanjie Jiang,  B. Kaduk,  S. Kaehler,  
 K. Khistyaev,  Jaehoon Kim,  P. Klunzinger,  Z. Koczor-Benda,  
 Joong Hoon Koh,  D. Kosenkov,  L. Koulias,  T. Kowalczyk,  C. M. Krauter,  
 K. Kue,  A. Kunitsa,  T. Kus,  A. Landau,  K. V. Lawler,  D. Lefrancois,  
 S. Lehtola,  Rain Li,  Yi-Pei Li,  Jiashu Liang,  M. Liebenthal,  
 Hung-Hsuan Lin,  You-Sheng Lin,  Fenglai Liu,  Kuan-Yu Liu,  
 M. Loipersberger,  A. Luenser,  A. Manjanath,  P. Manohar,  E. Mansoor,  
 S. F. Manzer,  Shan-Ping Mao,  A. V. Marenich,  T. Markovich,  S. Mason,  
 S. A. Maurer,  P. F. McLaughlin,  M. F. S. J. Menger,  J.-M. Mewes,  
 S. A. Mewes,  P. Morgante,  J. W. Mullinax,  T. S. Nguyen-Beck,  
 K. J. Oosterbaan,  G. Paran,  Alexander C. Paul,  Suranjan K. Paul,  
 F. Pavosevic,  Zheng Pei,  S. Prager,  E. I. Proynov,  E. Ramos,  B. Rana,  
 A. E. Rask,  A. Rettig,  R. M. Richard,  F. Rob,  E. Rossomme,  T. Scheele,  
 M. Scheurer,  M. Schneider,  N. Sergueev,  S. M. Sharada,  W. Skomorowski,  
 D. W. Small,  C. J. Stein,  Yu-Chuan Su,  E. J. Sundstrom,  Zhen Tao,  
 J. Thirman,  T. Tsuchimochi,  N. M. Tubman,  S. P. Veccham,  O. Vydrov,  
 J. Wenzel,  J. Witte,  A. Yamada,  Kun Yao,  S. Yeganeh,  S. R. Yost,  
 A. Zech,  Igor Ying Zhang,  Xing Zhang,  Yu Zhang,  D. Zuev,  
 A. Aspuru-Guzik,  A. T. Bell,  N. A. Besley,  K. B. Bravaya,  B. R. Brooks,  
 D. Casanova,  Jeng-Da Chai,  S. Coriani,  C. J. Cramer,  
 A. E. DePrince, III,  R. A. DiStasio Jr.,  A. Dreuw,  B. D. Dunietz,  
 T. R. Furlani,  W. A. Goddard III,  S. Grimme,  S. Hammes-Schiffer,  
 T. Head-Gordon,  W. J. Hehre,  Chao-Ping Hsu,  T.-C. Jagau,  Yousung Jung,  
 A. Klamt,  Jing Kong,  D. S. Lambrecht,  WanZhen Liang,  N. J. Mayhall,  
 C. W. McCurdy,  J. B. Neaton,  C. Ochsenfeld,  J. A. Parkhill,  R. Peverati,  
 V. A. Rassolov,  Yihan Shao,  L. V. Slipchenko,  T. Stauch,  R. P. Steele,  
 J. E. Subotnik,  A. J. W. Thom,  A. Tkatchenko,  D. G. Truhlar,  
 T. Van Voorhis,  T. A. Wesolowski,  K. B. Whaley,  H. L. Woodcock III,  
 P. M. Zimmerman,  S. Faraji,  P. M. W. Gill,  M. Head-Gordon,  
 J. M. Herbert,  A. I. Krylov

 Contributors to earlier versions of Q-Chem not listed above: 
 R. D. Adamson,  B. Austin,  R. Baer,  J. Baker,  G. J. O. Beran,  
 K. Brandhorst,  S. T. Brown,  E. F. C. Byrd,  A. K. Chakraborty,  
 G. K. L. Chan,  Chun-Min Chang,  Yunqing Chen,  C.-L. Cheng,  
 Siu Hung Chien,  D. M. Chipman,  D. L. Crittenden,  H. Dachsel,  
 R. J. Doerksen,  A. D. Dutoi,  R. G. Edgar,  J. Fosso-Tande,  
 L. Fusti-Molnar,  D. Ghosh,  A. Ghysels,  A. Golubeva-Zadorozhnaya,  
 J. Gonthier,  M. S. Gordon,  S. R. Gwaltney,  G. Hawkins,  J. E. Herr,  
 A. Heyden,  S. Hirata,  E. G. Hohenstein,  G. Kedziora,  F. J. Keil,  
 C. Kelley,  Jihan Kim,  R. A. King,  R. Z. Khaliullin,  P. P. Korambath,  
 W. Kurlancheek,  A. Laurent,  A. M. Lee,  M. S. Lee,  S. V. Levchenko,  
 Ching Yeh Lin,  D. Liotard,  E. Livshits,  R. C. Lochan,  I. Lotan,  
 L. A. Martinez-Martinez,  P. E. Maslen,  N. Nair,  D. P. O'Neill,  
 D. Neuhauser,  E. Neuscamman,  C. M. Oana,  R. Olivares-Amaya,  R. Olson,  
 T. M. Perrine,  B. Peters,  P. A. Pieniazek,  A. Prociuk,  Y. M. Rhee,  
 J. Ritchie,  M. A. Rohrdanz,  E. Rosta,  N. J. Russ,  H. F. Schaefer III,  
 M. W. Schmidt,  N. E. Schultz,  S. Sharma,  N. Shenvi,  C. D. Sherrill,  
 A. C. Simmonett,  A. Sodt,  T. Stein,  D. Stuck,  K. S. Thanthiriwatte,  
 V. Vanovschi,  L. Vogt,  Tao Wang,  A. Warshel,  M. A. Watson,  
 C. F. Williams,  Q. Wu,  X. Xu,  Jun Yang,  W. Zhang,  Yan Zhao

 Please cite Q-Chem as follows:
 Y. Shao et al., Mol. Phys. 113, 184-215 (2015)
 DOI: 10.1080/00268976.2014.952696

 Q-Chem 5.4.0 for Intel X86 EM64T Linux

 Parts of Q-Chem use Armadillo 9.800.1 (Horizon Scraper).
 http://arma.sourceforge.net/

 Q-Chem begins on Fri Jun 25 10:26:37 2021  

 Host: 
0

     Scratch files written to /scr/lance/134488/qchem56610//
 May1621 |scratch|qcdevops|jenkins|workspace|build_RNUM -1
 Processing $rem in /home/mgcf/software-ws/qchem/qchem_540/config/preferences:
 Processing $rem in /home/lance/.qchemrc:
Applying user defined connections for MM calculations

 Checking the input file for inconsistencies... 	...done.

--------------------------------------------------------------
User input:
--------------------------------------------------------------
$rem
jobtype		freq
gui     	2
!vibman_print	4
max_scf_cycles  500
geom_opt_max_cycles 999
exchange 	omegab97x-d
basis def2-svp
!basis		6-311+G(3df,3pd)
scf_algorithm 	rca_diis
QM_MM_INTERFACE Zeolite
force_field   	charmm27
user_connect   	true
symmetry  	 off
sym_ignore   	true
print_input   	true
qmmm_print   	false
qm_mm   	true
model_system_mult 1
qmmm_full_hessian 	false
mem_total   10000000
mem_static   10000
pop_mulliken 	false
!nbo	true
isotopes true
$end

$qm_atoms
1
2
3
4
5
6
7
8
9
10
11
12
13
14
15
16
17
18
19
20
21
22
23
24
25
26
27
28
29
30
31
32
33
34
35
36
37
38
39
40
41
42
43
44
45
46
47
48
49
50
51
52
53
54
55
56
57
58
59
60
61
62
$end

$isotopes
1 0
32
63 100000000000000000
64 100000000000000000
65 100000000000000000
66 100000000000000000
67 100000000000000000
68 100000000000000000
69 100000000000000000
70 100000000000000000
71 100000000000000000
72 100000000000000000
73 100000000000000000
74 100000000000000000
75 100000000000000000
76 100000000000000000
77 100000000000000000
78 100000000000000000
79 100000000000000000
80 100000000000000000
81 100000000000000000
82 100000000000000000
83 100000000000000000
84 100000000000000000
85 100000000000000000
86 100000000000000000
87 100000000000000000
88 100000000000000000
89 100000000000000000
90 100000000000000000
91 100000000000000000
92 100000000000000000
93 100000000000000000
94 100000000000000000
$end

$comment
Atom   type   and   names
-1   Oxygen   in   SiO4
-2   Silicon   in   SiO4
-3   H for terminal in SiO4
-23  Si right out of T5 and has one connections to QM
-22  Si right out of T5 and has two connections to QM
-21  Si right out of T5 and has three connections to QM
$end


$force_field_params
NumAtomTypes   3000
AtomType   -1   -0.35   1.77   -0.018
AtomType   -13   -0.35   1.77   -0.018
AtomType   -2   0.7   2.2   -0.047
AtomType   -3   -0.175   0.01   0
AtomType   -4    0.175   0.01   0
AtomType   -23   0.525   2.2   -0.047
AtomType   -22   0.35   2.2   -0.047
AtomType   -21   0.175   2.2   -0.047
AtomType   -111   0   1.34   -0.024
AtomType   -112   0   1.34   -0.035
AtomType   -121   0   2.05   -0.078
AtomType   -122   0   2.01   -0.056
AtomType   -912   0   2.175   -0.055
AtomType   -916   0   1.77   -0.1521
AtomType   -901   0   1.32   -0.022
AtomType   -801   0   0.2245   -0.046
AtomType    -31 0   1.9924  -0.07
AtomType    -32 0   2.09    -0.068
AtomType    -33 0   2.08    -0.064
AtomType    -34 0   1.87    -0.18
AtomType    -35 0   2.00    -0.032
AtomType    -41 0   0.2245  -0.046
AtomType    -42 0   0.87    -0.012
AtomType    -43 0   1.1 -0.046
AtomType    -44 0   1.3582  -0.03
AtomType    -45 0   1.26    -0.026
AtomType    -46 0   1.25    -0.031
AtomType    -47 0   1.34    -0.045
AtomType    -51 0   1.765   -0.1921
AtomType    -61 0   1.98    -0.07
AtomType    -62 0   1.89    -0.06
AtomType    -63 0   1.79    -0.18
Bond   -1   -2   304   1.682
Bond   -1   -3   204   1.489
Bond   -2   -3   100   1.45
Angle   -1   -2   -1   34   150
Angle   -2   -1   -2   30   121.5
Angle   -3   -1   -2   44   118
Angle   -1   -2   -3   30   109.5
Torsion   -2   -1   -2   -1   0.1   120   3
Torsion   -2   -1   -2   -3   0.3   120   3
Bond   -121   -122   222.5   1.528
Bond   -121   -121   222.5   1.528
Bond   -122   -122   222.5   1.528
Bond   -111   -121   309   1.089
Bond   -112   -122   309   1.089
Angle   -121   -122   -122   58   115
Angle   -121   -121   -122   58   115
Angle   -121   -121   -121   58   115
Angle   -122   -122   -122   58   115
Angle   -111   -121   -111   35.5   108.4
Angle   -111   -121   -121   35.5   108.4
Angle   -111   -121   -122   35.5   108.4
Angle   -112   -122   -112   35.5   108.4
Angle   -112   -122   -121   35.5   108.4
Angle   -112   -122   -122   35.5   108.4
Torsion   -111   -121   -122   -122   0.16   120   3
Torsion   -111   -121   -121   -121   0.16   120   3
Torsion   -111   -121   -121   -111   0.16   120   3
Torsion   -111   -121   -122   -112   0.16   120   3
Torsion   -112   -122   -122   -122   95.16   180   2
Torsion   -112   -122   -122   -112   95.16   180   2
Torsion   -121   -122   -122   -122   95.16   180   2
Torsion   -121   -122   -122   -112   95.16   180   2
Torsion   -122   -122   -122   -112   95.16   180   2
Torsion   -112   -122   -122   -121   95.16   180   2
Bond   -13   -1   304   1.682
Bond   -13   -121   222.5   1.55
Angle   -13   -121   -121   40   111
Angle   -13   -121   -1   34   150
Angle   -13   -121   -111   35.5   115
Torsion   -1   -13   -121   -121   0.2   120   3
Torsion   -1   -13   -121   -111   0.2   120   3
Bond   -901   -912   342.991   1.093
Bond   -801   -916   560.905   0.972
Bond   -916   -912   363.214   1.418
Bond   -912   -912   306.432   1.508
Angle   -916   -912   -912   71.39   108.133
Angle   -916   -912   -916   83.192   111.368
Angle   -916   -912   -901   56.205   108.577
Angle   -912   -912   -901   45.77   110.549
Angle   -912   -916   -912   86.143   106.926
Angle   -912   -912   -912   61.243   109.608
Angle   -912   -916   -801   57.069   106.503
Angle   -901   -912   -901   37.134   108.836
Torsion   -912   -916   -912   -912   -0.341   0   1
Torsion   -912   -916   -912   -912   0.378   180   2
Torsion   -912   -916   -912   -912   0.378   0   3
Torsion   -912   -916   -912   -901   0.285   0   1
Torsion   -912   -916   -912   -901   0.16   180   2
Torsion   -912   -916   -912   -901   0.285   0   3
Torsion   -912   -912   -912   -912   0.051   0   1
Torsion   -912   -912   -912   -912   0.341   180   2
Torsion   -912   -912   -912   -912   0.166   0   3
Torsion   -912   -912   -912   -916   -0.344   0   1
Torsion   -912   -912   -912   -916   0.878   180   2
Torsion   -912   -912   -912   -916   0.238   0   3
Torsion   -912   -912   -912   -901   0.32   0   1
Torsion   -912   -912   -912   -901   -0.315   180   2
Torsion   -912   -912   -912   -901   0.132   0   3
Torsion   -912   -912   -916   -801   0.135   180   2
Torsion   -912   -912   -916   -801   0.118   0   3
Torsion   -916   -912   -912   -916   0.204   0   1
Torsion   -916   -912   -912   -916   0.699   180   2
Torsion   -916   -912   -912   -916   0.48   0   3
Torsion   -916   -912   -912   -901   -0.327   0   1
Torsion   -916   -912   -912   -901   0.536   180   2
Torsion   -916   -912   -912   -901   0.14   0   3
Torsion   -916   -912   -916   -801   0.744   0   1
Torsion   -916   -912   -916   -801   -1.7   180   2
Torsion   -916   -912   -916   -801   -0.16   0   3
Torsion   -912   -916   -912   -916   0.115   0   1
Torsion   -912   -916   -912   -916   -0.355   180   2
Torsion   -912   -916   -912   -916   0.361   0   3
Torsion   -901   -912   -912   -901   0.142   0   1
Torsion   -901   -912   -912   -901   -0.693   180   2
Torsion   -901   -912   -912   -901   0.157   0   3
Torsion   -901   -912   -916   -801   0.298   0   1
Torsion   -901   -912   -916   -801   -0.138   180   2
Torsion   -901   -912   -916   -801   0.173   0   3
Imptor	-912   -912   -916   -916       0.000  0     0.00
Imptor	-912   -916   -916   -901     0.000  0     0.00
Imptor	-912   -912   -916   -912       0.000  0     0.00
Imptor	-912   -912   -916   -901     0.000  0     0.00
Imptor	-912   -912   -912   -916       0.000  0     0.00
Imptor	-912   -912   -912   -901     0.000  0     0.00
Imptor	-912   -916   -912   -901     0.000  0     0.00
$end

$opt
fixed
63 XYZ
64 XYZ
65 XYZ
66 XYZ
67 XYZ
68 XYZ
69 XYZ
70 XYZ
71 XYZ
72 XYZ
73 XYZ
74 XYZ
75 XYZ
76 XYZ
77 XYZ
78 XYZ
79 XYZ
80 XYZ
81 XYZ
82 XYZ
83 XYZ
84 XYZ
85 XYZ
86 XYZ
87 XYZ
88 XYZ
89 XYZ
90 XYZ
91 XYZ
92 XYZ
93 XYZ
94 XYZ
95 XYZ
96 XYZ
97 XYZ
98 XYZ
99 XYZ
100 XYZ
101 XYZ
102 XYZ
103 XYZ
104 XYZ
105 XYZ
106 XYZ
107 XYZ
108 XYZ
109 XYZ
110 XYZ
111 XYZ
112 XYZ
113 XYZ
114 XYZ
115 XYZ
116 XYZ
117 XYZ
118 XYZ
119 XYZ
120 XYZ
121 XYZ
122 XYZ
123 XYZ
124 XYZ
125 XYZ
126 XYZ
127 XYZ
128 XYZ
129 XYZ
130 XYZ
131 XYZ
132 XYZ
133 XYZ
134 XYZ
135 XYZ
136 XYZ
137 XYZ
138 XYZ
139 XYZ
140 XYZ
141 XYZ
142 XYZ
143 XYZ
144 XYZ
145 XYZ
146 XYZ
147 XYZ
148 XYZ
149 XYZ
150 XYZ
151 XYZ
152 XYZ
153 XYZ
154 XYZ
155 XYZ
156 XYZ
157 XYZ
158 XYZ
159 XYZ
160 XYZ
161 XYZ
162 XYZ
163 XYZ
164 XYZ
165 XYZ
166 XYZ
167 XYZ
168 XYZ
169 XYZ
170 XYZ
171 XYZ
172 XYZ
173 XYZ
174 XYZ
175 XYZ
176 XYZ
177 XYZ
178 XYZ
179 XYZ
180 XYZ
181 XYZ
182 XYZ
183 XYZ
184 XYZ
185 XYZ
186 XYZ
187 XYZ
188 XYZ
189 XYZ
190 XYZ
191 XYZ
192 XYZ
193 XYZ
194 XYZ
195 XYZ
196 XYZ
197 XYZ
198 XYZ
199 XYZ
200 XYZ
201 XYZ
202 XYZ
203 XYZ
204 XYZ
205 XYZ
206 XYZ
207 XYZ
208 XYZ
209 XYZ
210 XYZ
211 XYZ
212 XYZ
213 XYZ
214 XYZ
215 XYZ
216 XYZ
217 XYZ
218 XYZ
219 XYZ
220 XYZ
221 XYZ
222 XYZ
223 XYZ
224 XYZ
225 XYZ
226 XYZ
227 XYZ
228 XYZ
229 XYZ
230 XYZ
231 XYZ
232 XYZ
233 XYZ
234 XYZ
235 XYZ
236 XYZ
237 XYZ
238 XYZ
239 XYZ
240 XYZ
241 XYZ
242 XYZ
243 XYZ
244 XYZ
245 XYZ
246 XYZ
247 XYZ
248 XYZ
249 XYZ
250 XYZ
251 XYZ
252 XYZ
253 XYZ
254 XYZ
255 XYZ
256 XYZ
257 XYZ
258 XYZ
259 XYZ
260 XYZ
261 XYZ
262 XYZ
263 XYZ
264 XYZ
265 XYZ
266 XYZ
267 XYZ
268 XYZ
269 XYZ
270 XYZ
271 XYZ
272 XYZ
273 XYZ
274 XYZ
275 XYZ
276 XYZ
277 XYZ
278 XYZ
279 XYZ
280 XYZ
281 XYZ
282 XYZ
283 XYZ
284 XYZ
285 XYZ
286 XYZ
287 XYZ
288 XYZ
289 XYZ
290 XYZ
291 XYZ
292 XYZ
293 XYZ
294 XYZ
295 XYZ
296 XYZ
297 XYZ
298 XYZ
299 XYZ
300 XYZ
301 XYZ
302 XYZ
303 XYZ
304 XYZ
305 XYZ
306 XYZ
307 XYZ
308 XYZ
309 XYZ
310 XYZ
311 XYZ
312 XYZ
313 XYZ
314 XYZ
315 XYZ
316 XYZ
317 XYZ
318 XYZ
319 XYZ
320 XYZ
321 XYZ
322 XYZ
323 XYZ
324 XYZ
325 XYZ
326 XYZ
327 XYZ
328 XYZ
329 XYZ
330 XYZ
331 XYZ
332 XYZ
333 XYZ
334 XYZ
335 XYZ
336 XYZ
337 XYZ
338 XYZ
339 XYZ
340 XYZ
341 XYZ
342 XYZ
343 XYZ
344 XYZ
345 XYZ
346 XYZ
347 XYZ
348 XYZ
349 XYZ
350 XYZ
351 XYZ
352 XYZ
353 XYZ
354 XYZ
355 XYZ
356 XYZ
357 XYZ
358 XYZ
359 XYZ
360 XYZ
361 XYZ
362 XYZ
363 XYZ
364 XYZ
365 XYZ
366 XYZ
367 XYZ
368 XYZ
369 XYZ
370 XYZ
371 XYZ
372 XYZ
373 XYZ
374 XYZ
375 XYZ
376 XYZ
377 XYZ
378 XYZ
379 XYZ
380 XYZ
381 XYZ
382 XYZ
383 XYZ
384 XYZ
385 XYZ
386 XYZ
387 XYZ
388 XYZ
389 XYZ
390 XYZ
391 XYZ
392 XYZ
393 XYZ
394 XYZ
395 XYZ
396 XYZ
397 XYZ
398 XYZ
399 XYZ
400 XYZ
401 XYZ
402 XYZ
403 XYZ
404 XYZ
405 XYZ
406 XYZ
407 XYZ
408 XYZ
409 XYZ
410 XYZ
411 XYZ
412 XYZ
413 XYZ
414 XYZ
415 XYZ
416 XYZ
417 XYZ
418 XYZ
419 XYZ
420 XYZ
421 XYZ
422 XYZ
423 XYZ
424 XYZ
425 XYZ
426 XYZ
427 XYZ
428 XYZ
429 XYZ
430 XYZ
431 XYZ
432 XYZ
433 XYZ
434 XYZ
435 XYZ
436 XYZ
437 XYZ
438 XYZ
439 XYZ
440 XYZ
441 XYZ
442 XYZ
443 XYZ
444 XYZ
445 XYZ
446 XYZ
447 XYZ
448 XYZ
449 XYZ
450 XYZ
451 XYZ
452 XYZ
453 XYZ
454 XYZ
455 XYZ
456 XYZ
457 XYZ
458 XYZ
459 XYZ
460 XYZ
461 XYZ
462 XYZ
463 XYZ
464 XYZ
465 XYZ
466 XYZ
467 XYZ
468 XYZ
469 XYZ
470 XYZ
471 XYZ
472 XYZ
473 XYZ
474 XYZ
475 XYZ
476 XYZ
477 XYZ
478 XYZ
479 XYZ
480 XYZ
481 XYZ
482 XYZ
483 XYZ
484 XYZ
485 XYZ
486 XYZ
487 XYZ
488 XYZ
489 XYZ
490 XYZ
491 XYZ
492 XYZ
493 XYZ
494 XYZ
495 XYZ
496 XYZ
497 XYZ
498 XYZ
499 XYZ
500 XYZ
501 XYZ
502 XYZ
503 XYZ
504 XYZ
505 XYZ
506 XYZ
507 XYZ
508 XYZ
509 XYZ
510 XYZ
511 XYZ
512 XYZ
513 XYZ
514 XYZ
515 XYZ
516 XYZ
517 XYZ
518 XYZ
519 XYZ
520 XYZ
521 XYZ
522 XYZ
523 XYZ
524 XYZ
525 XYZ
526 XYZ
527 XYZ
528 XYZ
529 XYZ
530 XYZ
531 XYZ
532 XYZ
533 XYZ
534 XYZ
535 XYZ
536 XYZ
537 XYZ
538 XYZ
539 XYZ
540 XYZ
541 XYZ
542 XYZ
543 XYZ
544 XYZ
545 XYZ
546 XYZ
547 XYZ
548 XYZ
549 XYZ
550 XYZ
551 XYZ
552 XYZ
553 XYZ
554 XYZ
555 XYZ
556 XYZ
557 XYZ
558 XYZ
559 XYZ
560 XYZ
561 XYZ
562 XYZ
563 XYZ
564 XYZ
565 XYZ
566 XYZ
567 XYZ
568 XYZ
569 XYZ
570 XYZ
571 XYZ
572 XYZ
573 XYZ
574 XYZ
575 XYZ
576 XYZ
577 XYZ
578 XYZ
579 XYZ
580 XYZ
581 XYZ
582 XYZ
583 XYZ
584 XYZ
585 XYZ
586 XYZ
587 XYZ
588 XYZ
589 XYZ
590 XYZ
591 XYZ
592 XYZ
593 XYZ
594 XYZ
595 XYZ
596 XYZ
597 XYZ
598 XYZ
599 XYZ
600 XYZ
601 XYZ
602 XYZ
603 XYZ
604 XYZ
605 XYZ
606 XYZ
607 XYZ
608 XYZ
609 XYZ
610 XYZ
611 XYZ
612 XYZ
613 XYZ
614 XYZ
615 XYZ
616 XYZ
617 XYZ
618 XYZ
619 XYZ
620 XYZ
621 XYZ
622 XYZ
623 XYZ
624 XYZ
625 XYZ
626 XYZ
627 XYZ
628 XYZ
629 XYZ
630 XYZ
631 XYZ
632 XYZ
633 XYZ
634 XYZ
635 XYZ
636 XYZ
637 XYZ
638 XYZ
639 XYZ
640 XYZ
641 XYZ
642 XYZ
643 XYZ
644 XYZ
645 XYZ
646 XYZ
647 XYZ
648 XYZ
649 XYZ
650 XYZ
651 XYZ
652 XYZ
653 XYZ
654 XYZ
655 XYZ
656 XYZ
657 XYZ
658 XYZ
659 XYZ
660 XYZ
661 XYZ
662 XYZ
663 XYZ
664 XYZ
665 XYZ
666 XYZ
667 XYZ
668 XYZ
669 XYZ
670 XYZ
671 XYZ
672 XYZ
673 XYZ
674 XYZ
675 XYZ
676 XYZ
677 XYZ
678 XYZ
679 XYZ
680 XYZ
681 XYZ
682 XYZ
683 XYZ
684 XYZ
685 XYZ
686 XYZ
687 XYZ
688 XYZ
689 XYZ
690 XYZ
691 XYZ
692 XYZ
693 XYZ
694 XYZ
695 XYZ
696 XYZ
697 XYZ
698 XYZ
699 XYZ
700 XYZ
701 XYZ
702 XYZ
703 XYZ
704 XYZ
705 XYZ
706 XYZ
707 XYZ
708 XYZ
709 XYZ
710 XYZ
711 XYZ
712 XYZ
713 XYZ
714 XYZ
715 XYZ
716 XYZ
717 XYZ
718 XYZ
719 XYZ
720 XYZ
721 XYZ
722 XYZ
723 XYZ
724 XYZ
725 XYZ
726 XYZ
727 XYZ
728 XYZ
729 XYZ
730 XYZ
731 XYZ
732 XYZ
733 XYZ
734 XYZ
735 XYZ
736 XYZ
737 XYZ
738 XYZ
739 XYZ
740 XYZ
741 XYZ
742 XYZ
743 XYZ
744 XYZ
745 XYZ
746 XYZ
747 XYZ
748 XYZ
749 XYZ
750 XYZ
751 XYZ
752 XYZ
753 XYZ
754 XYZ
755 XYZ
756 XYZ
757 XYZ
758 XYZ
759 XYZ
760 XYZ
761 XYZ
762 XYZ
763 XYZ
764 XYZ
765 XYZ
766 XYZ
767 XYZ
768 XYZ
769 XYZ
770 XYZ
771 XYZ
772 XYZ
773 XYZ
774 XYZ
775 XYZ
776 XYZ
777 XYZ
778 XYZ
779 XYZ
780 XYZ
781 XYZ
782 XYZ
783 XYZ
784 XYZ
785 XYZ
786 XYZ
787 XYZ
788 XYZ
789 XYZ
790 XYZ
791 XYZ
792 XYZ
793 XYZ
794 XYZ
795 XYZ
796 XYZ
797 XYZ
798 XYZ
799 XYZ
800 XYZ
801 XYZ
802 XYZ
803 XYZ
804 XYZ
805 XYZ
806 XYZ
807 XYZ
808 XYZ
809 XYZ
810 XYZ
811 XYZ
812 XYZ
813 XYZ
814 XYZ
815 XYZ
816 XYZ
817 XYZ
818 XYZ
819 XYZ
820 XYZ
821 XYZ
822 XYZ
823 XYZ
824 XYZ
825 XYZ
826 XYZ
827 XYZ
828 XYZ
829 XYZ
830 XYZ
831 XYZ
832 XYZ
833 XYZ
834 XYZ
835 XYZ
836 XYZ
837 XYZ
838 XYZ
839 XYZ
840 XYZ
841 XYZ
842 XYZ
843 XYZ
844 XYZ
845 XYZ
846 XYZ
847 XYZ
848 XYZ
849 XYZ
850 XYZ
851 XYZ
852 XYZ
853 XYZ
854 XYZ
855 XYZ
856 XYZ
857 XYZ
858 XYZ
859 XYZ
860 XYZ
861 XYZ
862 XYZ
863 XYZ
864 XYZ
865 XYZ
866 XYZ
867 XYZ
868 XYZ
869 XYZ
870 XYZ
871 XYZ
872 XYZ
873 XYZ
874 XYZ
875 XYZ
876 XYZ
877 XYZ
878 XYZ
879 XYZ
880 XYZ
881 XYZ
882 XYZ
883 XYZ
884 XYZ
885 XYZ
886 XYZ
887 XYZ
888 XYZ
889 XYZ
890 XYZ
891 XYZ
892 XYZ
893 XYZ
894 XYZ
895 XYZ
896 XYZ
897 XYZ
898 XYZ
899 XYZ
900 XYZ
901 XYZ
902 XYZ
903 XYZ
904 XYZ
905 XYZ
906 XYZ
907 XYZ
908 XYZ
909 XYZ
910 XYZ
911 XYZ
912 XYZ
913 XYZ
914 XYZ
915 XYZ
916 XYZ
917 XYZ
918 XYZ
919 XYZ
920 XYZ
921 XYZ
922 XYZ
923 XYZ
924 XYZ
925 XYZ
926 XYZ
927 XYZ
928 XYZ
929 XYZ
930 XYZ
931 XYZ
932 XYZ
933 XYZ
934 XYZ
935 XYZ
936 XYZ
937 XYZ
938 XYZ
939 XYZ
940 XYZ
941 XYZ
942 XYZ
943 XYZ
944 XYZ
945 XYZ
946 XYZ
947 XYZ
948 XYZ
949 XYZ
950 XYZ
951 XYZ
952 XYZ
953 XYZ
954 XYZ
955 XYZ
956 XYZ
957 XYZ
958 XYZ
959 XYZ
960 XYZ
961 XYZ
962 XYZ
963 XYZ
964 XYZ
965 XYZ
966 XYZ
967 XYZ
968 XYZ
969 XYZ
970 XYZ
971 XYZ
972 XYZ
973 XYZ
974 XYZ
975 XYZ
976 XYZ
977 XYZ
978 XYZ
979 XYZ
980 XYZ
981 XYZ
982 XYZ
983 XYZ
984 XYZ
985 XYZ
986 XYZ
987 XYZ
988 XYZ
989 XYZ
990 XYZ
991 XYZ
992 XYZ
993 XYZ
994 XYZ
995 XYZ
996 XYZ
997 XYZ
998 XYZ
999 XYZ
1000 XYZ
1001 XYZ
1002 XYZ
1003 XYZ
1004 XYZ
1005 XYZ
1006 XYZ
1007 XYZ
1008 XYZ
1009 XYZ
1010 XYZ
1011 XYZ
1012 XYZ
1013 XYZ
1014 XYZ
1015 XYZ
1016 XYZ
1017 XYZ
1018 XYZ
1019 XYZ
1020 XYZ
1021 XYZ
1022 XYZ
1023 XYZ
1024 XYZ
1025 XYZ
1026 XYZ
1027 XYZ
1028 XYZ
1029 XYZ
1030 XYZ
1031 XYZ
1032 XYZ
1033 XYZ
1034 XYZ
1035 XYZ
1036 XYZ
1037 XYZ
1038 XYZ
1039 XYZ
1040 XYZ
1041 XYZ
1042 XYZ
1043 XYZ
1044 XYZ
1045 XYZ
1046 XYZ
1047 XYZ
1048 XYZ
1049 XYZ
1050 XYZ
1051 XYZ
1052 XYZ
1053 XYZ
1054 XYZ
1055 XYZ
1056 XYZ
1057 XYZ
1058 XYZ
1059 XYZ
1060 XYZ
1061 XYZ
1062 XYZ
1063 XYZ
1064 XYZ
1065 XYZ
1066 XYZ
1067 XYZ
1068 XYZ
1069 XYZ
1070 XYZ
1071 XYZ
1072 XYZ
1073 XYZ
1074 XYZ
1075 XYZ
1076 XYZ
1077 XYZ
1078 XYZ
1079 XYZ
1080 XYZ
1081 XYZ
1082 XYZ
1083 XYZ
1084 XYZ
1085 XYZ
1086 XYZ
1087 XYZ
1088 XYZ
1089 XYZ
1090 XYZ
1091 XYZ
1092 XYZ
1093 XYZ
1094 XYZ
1095 XYZ
1096 XYZ
1097 XYZ
1098 XYZ
1099 XYZ
1100 XYZ
1101 XYZ
1102 XYZ
1103 XYZ
1104 XYZ
1105 XYZ
1106 XYZ
1107 XYZ
1108 XYZ
1109 XYZ
1110 XYZ
1111 XYZ
1112 XYZ
1113 XYZ
1114 XYZ
1115 XYZ
1116 XYZ
1117 XYZ
1118 XYZ
1119 XYZ
1120 XYZ
1121 XYZ
1122 XYZ
1123 XYZ
1124 XYZ
1125 XYZ
1126 XYZ
1127 XYZ
1128 XYZ
1129 XYZ
1130 XYZ
1131 XYZ
1132 XYZ
1133 XYZ
1134 XYZ
1135 XYZ
1136 XYZ
1137 XYZ
1138 XYZ
1139 XYZ
1140 XYZ
1141 XYZ
1142 XYZ
1143 XYZ
1144 XYZ
1145 XYZ
1146 XYZ
1147 XYZ
1148 XYZ
1149 XYZ
1150 XYZ
1151 XYZ
1152 XYZ
1153 XYZ
1154 XYZ
1155 XYZ
1156 XYZ
1157 XYZ
1158 XYZ
1159 XYZ
1160 XYZ
1161 XYZ
1162 XYZ
1163 XYZ
1164 XYZ
1165 XYZ
1166 XYZ
1167 XYZ
1168 XYZ
1169 XYZ
1170 XYZ
1171 XYZ
1172 XYZ
1173 XYZ
1174 XYZ
1175 XYZ
1176 XYZ
1177 XYZ
1178 XYZ
1179 XYZ
1180 XYZ
1181 XYZ
1182 XYZ
1183 XYZ
1184 XYZ
1185 XYZ
1186 XYZ
1187 XYZ
1188 XYZ
1189 XYZ
1190 XYZ
1191 XYZ
1192 XYZ
1193 XYZ
1194 XYZ
1195 XYZ
1196 XYZ
1197 XYZ
1198 XYZ
1199 XYZ
1200 XYZ
1201 XYZ
1202 XYZ
1203 XYZ
1204 XYZ
1205 XYZ
1206 XYZ
1207 XYZ
1208 XYZ
1209 XYZ
1210 XYZ
1211 XYZ
1212 XYZ
1213 XYZ
1214 XYZ
1215 XYZ
1216 XYZ
1217 XYZ
1218 XYZ
1219 XYZ
1220 XYZ
1221 XYZ
1222 XYZ
1223 XYZ
1224 XYZ
1225 XYZ
1226 XYZ
1227 XYZ
1228 XYZ
1229 XYZ
1230 XYZ
1231 XYZ
1232 XYZ
1233 XYZ
1234 XYZ
1235 XYZ
1236 XYZ
1237 XYZ
1238 XYZ
1239 XYZ
1240 XYZ
1241 XYZ
1242 XYZ
1243 XYZ
1244 XYZ
1245 XYZ
1246 XYZ
1247 XYZ
1248 XYZ
1249 XYZ
1250 XYZ
1251 XYZ
1252 XYZ
1253 XYZ
1254 XYZ
1255 XYZ
1256 XYZ
1257 XYZ
1258 XYZ
1259 XYZ
1260 XYZ
1261 XYZ
1262 XYZ
1263 XYZ
1264 XYZ
1265 XYZ
1266 XYZ
1267 XYZ
1268 XYZ
1269 XYZ
1270 XYZ
1271 XYZ
1272 XYZ
1273 XYZ
1274 XYZ
1275 XYZ
1276 XYZ
1277 XYZ
1278 XYZ
1279 XYZ
1280 XYZ
1281 XYZ
1282 XYZ
1283 XYZ
1284 XYZ
1285 XYZ
1286 XYZ
1287 XYZ
1288 XYZ
1289 XYZ
1290 XYZ
1291 XYZ
1292 XYZ
1293 XYZ
1294 XYZ
1295 XYZ
1296 XYZ
1297 XYZ
1298 XYZ
1299 XYZ
1300 XYZ
1301 XYZ
1302 XYZ
1303 XYZ
1304 XYZ
1305 XYZ
1306 XYZ
1307 XYZ
1308 XYZ
1309 XYZ
1310 XYZ
1311 XYZ
1312 XYZ
1313 XYZ
1314 XYZ
1315 XYZ
1316 XYZ
1317 XYZ
1318 XYZ
1319 XYZ
1320 XYZ
1321 XYZ
1322 XYZ
1323 XYZ
1324 XYZ
1325 XYZ
1326 XYZ
1327 XYZ
1328 XYZ
1329 XYZ
1330 XYZ
1331 XYZ
1332 XYZ
1333 XYZ
1334 XYZ
1335 XYZ
1336 XYZ
1337 XYZ
1338 XYZ
1339 XYZ
1340 XYZ
1341 XYZ
1342 XYZ
1343 XYZ
1344 XYZ
1345 XYZ
1346 XYZ
1347 XYZ
1348 XYZ
1349 XYZ
1350 XYZ
1351 XYZ
1352 XYZ
1353 XYZ
1354 XYZ
1355 XYZ
1356 XYZ
1357 XYZ
1358 XYZ
1359 XYZ
1360 XYZ
1361 XYZ
1362 XYZ
1363 XYZ
1364 XYZ
1365 XYZ
1366 XYZ
1367 XYZ
1368 XYZ
1369 XYZ
1370 XYZ
1371 XYZ
1372 XYZ
1373 XYZ
1374 XYZ
1375 XYZ
1376 XYZ
1377 XYZ
1378 XYZ
1379 XYZ
1380 XYZ
1381 XYZ
1382 XYZ
1383 XYZ
1384 XYZ
1385 XYZ
1386 XYZ
1387 XYZ
1388 XYZ
1389 XYZ
1390 XYZ
1391 XYZ
1392 XYZ
1393 XYZ
1394 XYZ
1395 XYZ
1396 XYZ
1397 XYZ
1398 XYZ
1399 XYZ
1400 XYZ
1401 XYZ
1402 XYZ
1403 XYZ
1404 XYZ
1405 XYZ
1406 XYZ
1407 XYZ
1408 XYZ
1409 XYZ
1410 XYZ
1411 XYZ
1412 XYZ
1413 XYZ
1414 XYZ
1415 XYZ
1416 XYZ
1417 XYZ
1418 XYZ
1419 XYZ
1420 XYZ
1421 XYZ
1422 XYZ
1423 XYZ
1424 XYZ
1425 XYZ
1426 XYZ
1427 XYZ
1428 XYZ
1429 XYZ
1430 XYZ
1431 XYZ
1432 XYZ
1433 XYZ
1434 XYZ
1435 XYZ
1436 XYZ
1437 XYZ
1438 XYZ
1439 XYZ
1440 XYZ
1441 XYZ
1442 XYZ
1443 XYZ
endfixed
$end

$molecule
0 1
C        16.3480275140    5.0630639503    9.6594237080 	 0	 9	 10	 11	 3
H        15.9181996141    4.3544367296    7.6776229205 	 0	 3	 0	 0	 0
C        15.8872398301    5.3144536503    8.2264672045 	 0	 1	 2	 4	 6
H        16.6081900920    6.0039534334    7.7492426602 	 0	 3	 0	 0	 0
H        13.7476217389    5.2597009429    8.6316169570 	 0	 6	 0	 0	 0
C        14.4857044686    5.9132620798    8.1424183922 	 0	 3	 5	 7	 8
H        14.1541146582    6.0608777165    7.1031142438 	 0	 6	 0	 0	 0
H        14.4514838968    6.8890393806    8.6521519789 	 0	 6	 0	 0	 0
H        15.6603684874    4.3715186868   10.1689021417 	 0	 1	 0	 0	 0
H        16.3679439984    6.0040899952   10.2309774460 	 0	 1	 0	 0	 0
H        17.3555285660    4.6255508509    9.6948057907 	 0	 1	 0	 0	 0
H        16.2529867981    5.1949728383    5.9853698525 	 0	 14	 0	 0	 0
Al       16.4780669650    3.4699658137    4.3076479425 	 0	 17	 14	 15	 16
O        16.3392167760    5.2613817244    5.0129296794 	 0	 18	 12	 13	 0
O        18.0849822056    3.2235792386    3.7818832188 	 0	 19	 13	 0	 0
O        15.3212678350    3.3673496205    3.0451617205 	 0	 20	 13	 0	 0
O        16.0430129434    2.6595319326    5.7631988645 	 0	 13	 21	 0	 0
Si       16.5402436504    6.8604441320    4.4567591117 	 0	 22	 14	 23	 24
Si       18.8598074836    2.6110549185    2.4785369901 	 0	 63	 65	 15	 64
Si       13.9162519414    2.9304380786    2.3786223120 	 0	 25	 66	 67	 16
Si       15.6691625367    1.2020495750    6.3435229467 	 0	 17	 26	 27	 68
O        15.4927090034    7.1930375545    3.2714567126 	 0	 18	 28	 0	 0
O        16.3019143131    7.7496035882    5.7843035843 	 0	 18	 29	 0	 0
O        18.0421104775    7.0151982043    3.8935791891 	 0	 18	 30	 0	 0
O        12.6708092439    3.7913169962    3.0517522345 	 0	 20	 31	 0	 0
O        14.0306072201    1.1089392765    6.5385498186 	 0	 21	 32	 0	 0
O        16.3860763151    1.0096016709    7.8121670418 	 0	 33	 21	 0	 0
Si       14.1062086495    7.7834386859    2.5826920312 	 0	 35	 22	 71	 72
Si       15.9002996100    9.1366875725    6.5693331499 	 0	 41	 73	 38	 23
Si       18.9010413526    7.6491257788    2.6220713824 	 0	 74	 75	 76	 24
Si       11.6476836927    3.8164080075    4.3163419421 	 0	 25	 37	 70	 0
Si       12.4606019664    1.5477633302    6.3838347244 	 0	 26	 37	 79	 80
Si       16.0915631077    0.5660376074    9.3380397264 	 0	 27	 60	 59	 94
O        12.2949930311    7.6374523083    5.7630376317 	 0	 39	 40	 0	 0
O        12.8295366416    7.0186816079    3.2345092598 	 0	 28	 39	 0	 0
O        11.3652152591    5.3775935986    4.7552880437 	 0	 39	 0	 0	 0
O        12.2926006743    2.9876431466    5.5804620361 	 0	 31	 32	 0	 0
O        14.2838193182    9.2014803461    6.6950116402 	 0	 29	 40	 0	 0
Si       11.6922734242    6.9310348471    4.4094937527 	 0	 34	 35	 36	 69
Si       12.6612504182    8.9923518038    6.6119063062 	 0	 34	 38	 77	 78
O        16.6112829031    9.0894557699    8.0342761561 	 0	 42	 29	 0	 0
Si       16.3934391359    9.5951455931    9.5749387854 	 0	 41	 83	 46	 47
O        16.3673221171    7.0751964885   13.1936863250 	 0	 53	 54	 0	 0
O        14.6278855808    5.0543836615   12.9295473063 	 0	 57	 53	 0	 0
O        17.9102342976    4.9417236829   12.7082705413 	 0	 58	 54	 0	 0
O        17.4673194293    8.8392412609   10.5332224368 	 0	 42	 55	 0	 0
O        14.8651356485    9.2271092552   10.0213198311 	 0	 42	 56	 0	 0
O        18.8615751360    7.3930556472   12.2863502473 	 0	 54	 55	 0	 0
O        14.0729082360    7.4418813663   11.8836224552 	 0	 53	 56	 0	 0
O        16.2212588180    2.9131215993   13.1383665758 	 0	 57	 58	 0	 0
O        18.6870787878    2.4422555121   12.2059273255 	 0	 58	 61	 0	 0
O        13.9713720146    2.8041154906   11.6768087044 	 0	 57	 62	 0	 0
Si       14.7785164007    6.6594293943   13.1343175374 	 0	 49	 89	 43	 44
Si       17.8999797312    6.4837806148   13.2408378315 	 0	 90	 43	 45	 48
Si       18.7642148600    8.8478563530   11.5425327629 	 0	 84	 46	 88	 48
Si       13.8434637411    8.9545833113   11.2829982916 	 0	 49	 82	 85	 47
Si       14.6679065583    3.4280789642   13.0147390134 	 0	 44	 91	 52	 50
Si       17.7944392125    3.3826712688   13.1901396650 	 0	 50	 51	 92	 45
O        17.1731145747    1.2908779949   10.3308803183 	 0	 33	 61	 0	 0
O        14.5757952490    1.0348652279    9.7434748410 	 0	 33	 62	 0	 0
Si       18.4737645328    1.0856552972   11.3078029349 	 0	 81	 59	 93	 51
Si       13.5825061438    1.3471505425   11.0062146975 	 0	 52	 60	 86	 87
O        18.3893626004    3.6322521756    1.2177795215 	-1	 19	 95	 0	 0
O        18.5243626004    0.9652521756    2.2977795215 	-1	 19	 96	 0	 0
O        20.4723626004    2.6922521756    2.7887795215 	-1	 97	 19	 0	 0
O        13.9203626004    3.2972521756    0.8267795215 	-1	 98	 20	 0	 0
O        13.5793626004    1.3482521756    2.5847795215 	-1	 99	 20	 0	 0
O        16.2373626004   -0.0297478244    5.4587795215 	-1	 100	 21	 0	 0
O        10.4413626004    7.7642521756    3.8437795215 	-1	 101	 39	 0	 0
O        10.2573626004    3.1882521756    3.8517795215 	-1	 102	 31	 0	 0
O        14.1253626004    7.4702521756    1.0257795215 	-1	 114	 28	 0	 0
O        14.0173626004    9.3822521756    2.8637795215 	-1	 115	 28	 0	 0
O        16.4143626004   10.4212521756    5.7707795215 	-1	 116	 29	 0	 0
O        18.4943626004    6.9152521756    1.2717795215 	-1	 117	 30	 0	 0
O        18.6613626004    9.2512521756    2.5087795215 	-1	 118	 30	 0	 0
O        20.4123626004    7.2642521756    2.8687795215 	-1	 30	 119	 0	 0
O        12.0763626004   10.2542521756    5.8217795215 	-1	 109	 40	 0	 0
O        12.0583626004    8.8582521756    8.0797795215 	-1	 110	 40	 0	 0
O        11.7433626004    0.4012521756    5.5137795215 	-1	 120	 32	 0	 0
O        11.7193626004    1.7142521756    7.8137795215 	-1	 121	 32	 0	 0
O        19.7913626004    0.8402521756   10.4387795215 	-1	 489	 61	 0	 0
O        12.3643626004    9.0652521756   10.7217795215 	-1	 110	 56	 0	 0
O        16.6093626004   11.1752521756    9.6817795215 	-1	 42	 237	 0	 0
O        18.5583626004    9.9962521756   12.6487795215 	-1	 235	 55	 0	 0
O        14.1183626004   10.0432521756   12.4407795215 	-1	 234	 56	 0	 0
O        12.0983626004    1.4212521756   10.4487795215 	-1	 121	 62	 0	 0
O        13.7463626004    0.1942521756   12.1227795215 	-1	 738	 62	 0	 0
O        20.0933626004    9.0912521756   10.6937795215 	-1	 55	 544	 0	 0
O        14.0663626004    7.1032521756   14.4937795215 	-1	 652	 53	 0	 0
O        18.4353626004    6.5482521756   14.7397795215 	-1	 653	 54	 0	 0
O        13.8613626004    2.9292521756   14.2947795215 	-1	 57	 660	 0	 0
O        18.3303626004    3.2642521756   14.6857795215 	-1	 58	 661	 0	 0
O        18.1953626004   -0.1547478244   12.2877795215 	-1	 739	 61	 0	 0
O        16.2103626004   -1.0187478244    9.5287795215 	-1	 33	 741	 0	 0
Si       17.8473626004    3.7672521756   -0.2942204785 	-23	 1193	 1194	 132	 63
Si       18.7953626004   -0.6117478244    2.5577795215 	-23	 1201	 1203	 133	 64
Si       21.7883626004    3.4652521756    2.2627795215 	-23	 65	 1196	 1197	 1198
Si       14.7173626004    3.8212521756   -0.4712204785 	-23	 66	 1195	 132	 1192
Si       13.7723626004   -0.2487478244    2.4507795215 	-23	 67	 134	 1199	 1200
Si       16.4523626004   -1.2057478244    4.3747795215 	-23	 1202	 68	 133	 134
Si        8.8753626004    7.9662521756    4.1527795215 	-23	 105	 69	 103	 104
Si        8.6603626004    3.0452521756    4.0517795215 	-23	 106	 107	 108	 70
O         8.3533626004    7.1212521756    5.4687795215 	-1	 101	 111	 0	 0
O         8.0233626004    7.4722521756    2.8657795215 	-1	 101	 112	 0	 0
O         8.6213626004    9.5382521756    4.4307795215 	-1	 113	 101	 0	 0
O         8.1803626004    3.8742521756    5.3627795215 	-1	 122	 102	 0	 0
O         7.8983626004    3.6522521756    2.7447795215 	-1	 123	 102	 0	 0
O         8.2703626004    1.4762521756    4.2307795215 	-1	 124	 102	 0	 0
Si       11.9243626004   11.5302521756    4.8297795215 	-23	 162	 220	 77	 156
Si       11.6113626004    9.6632521756    9.4157795215 	-22	 82	 170	 173	 78
Si        7.8173626004    7.0032521756    6.9917795215 	-2	 211	 155	 196	 103
Si        6.5063626004    7.1922521756    2.3497795215 	-2	 153	 219	 212	 104
Si        8.9743626004   11.1152521756    4.2527795215 	-2	 105	 220	 206	 207
Si       14.8253626004    7.0062521756   -0.3582204785 	-23	 1192	 276	 71	 288
Si       14.2633626004   10.9842521756    2.8317795215 	-23	 161	 156	 157	 72
Si       16.7453626004   11.5292521756    4.6367795215 	-23	 73	 163	 161	 160
Si       17.9453626004    6.8312521756   -0.2492204785 	-23	 1193	 74	 276	 285
Si       19.0233626004   10.8112521756    2.7887795215 	-23	 75	 387	 159	 160
Si       21.7533626004    6.5492521756    2.2917795215 	-23	 76	 469	 1198	 479
Si       11.4543626004   -0.7797478244    4.4397795215 	-23	 701	 711	 79	 1199
Si       11.2723626004    0.9082521756    9.1507795215 	-22	 718	 86	 185	 80
Si        7.6863626004    3.9332521756    6.9027795215 	-2	 106	 147	 143	 155
Si        6.4003626004    4.0602521756    2.2587795215 	-2	 153	 107	 148	 152
Si        8.5343626004   -0.1047478244    3.9417795215 	-2	 108	 701	 695	 696
O         3.8053626004    3.2582521756    8.2587795215 	-1	 233	 225	 0	 0
O         9.1883626004   15.3952521756    8.9277795215 	-1	 226	 253	 0	 0
O         4.1593626004   15.5922521756    8.8877795215 	-1	 257	 230	 0	 0
O         6.0003626004   15.7302521756    0.8417795215 	-1	 228	 255	 0	 0
O         2.5643626004   15.8692521756    0.9987795215 	-1	 229	 256	 0	 0
O         2.7323626004    4.1892521756    3.3357795215 	-1	 231	 232	 0	 0
O         1.3283626004    5.8482521756    1.8347795215 	-1	 231	 263	 0	 0
O        16.2773626004    3.3542521756   -0.3932204785 	-1	 98	 95	 0	 0
O        17.9813626004   -1.1637478244    3.8467795215 	-1	 100	 96	 0	 0
O        15.2623626004   -0.6987478244    2.9277795215 	-1	 99	 100	 0	 0
O         7.1313626004    1.7072521756    9.6787795215 	-1	 221	 222	 0	 0
O         6.2623626004    1.4862521756   12.1537795215 	-1	 637	 222	 0	 0
O         3.9883626004    1.8572521756   -0.0792204785 	-1	 223	 224	 0	 0
O         4.5383626004    1.5022521756   10.1487795215 	-1	 225	 222	 0	 0
O         7.7593626004   17.0002521756   10.4697795215 	-1	 226	 227	 0	 0
O         6.5853626004   17.4252521756   12.7627795215 	-1	 227	 639	 0	 0
O         4.3383626004   17.8122521756    0.5757795215 	-1	 228	 229	 0	 0
O         5.1293626004   17.4482521756   10.5407795215 	-1	 227	 230	 0	 0
O         8.5513626004    2.9242521756    7.8267795215 	-1	 122	 221	 0	 0
O         3.7943626004    0.6602521756    7.7297795215 	-1	 225	 730	 0	 0
O        20.3143626004   17.1982521756   10.9317795215 	-1	 242	 495	 0	 0
O         3.8353626004    3.6202521756    5.6367795215 	-1	 233	 232	 0	 0
O         6.1173626004    3.4992521756    6.9837795215 	-1	 233	 122	 0	 0
O         5.3533626004    3.6992521756    3.4577795215 	-1	 123	 232	 0	 0
O         3.5903626004    1.7332521756    3.7837795215 	-1	 729	 232	 0	 0
O         1.6913626004    0.9702521756    0.8547795215 	-1	 224	 728	 0	 0
O         2.1883626004    3.5952521756    0.7987795215 	-1	 231	 224	 0	 0
O         6.0243626004    3.2752521756    0.8897795215 	-1	 123	 223	 0	 0
O         6.3313626004    5.6432521756    1.9207795215 	-1	 123	 112	 0	 0
O         4.4753626004    5.5832521756    7.3027795215 	-1	 233	 265	 0	 0
O         7.8813626004    5.4492521756    7.4567795215 	-1	 122	 111	 0	 0
O        13.1693626004   11.6792521756    3.8057795215 	-1	 115	 109	 0	 0
O        14.0783626004   11.5772521756    1.3337795215 	-1	 115	 317	 0	 0
O        16.3083626004   11.0772521756   13.4767795215 	-1	 234	 235	 0	 0
O        18.5633626004   11.6722521756    1.4887795215 	-1	 318	 118	 0	 0
O        18.2713626004   11.3512521756    4.1207795215 	-1	 116	 118	 0	 0
O        15.7593626004   11.3442521756    3.3557795215 	-1	 115	 116	 0	 0
O        11.8233626004   12.8912521756    5.7167795215 	-1	 109	 239	 0	 0
O        16.5873626004   13.0082521756    5.2877795215 	-1	 116	 238	 0	 0
O        17.7443626004   13.4682521756   10.2567795215 	-1	 236	 237	 0	 0
O        16.5753626004   13.1702521756    7.9337795215 	-1	 237	 238	 0	 0
O        14.2903626004   13.2542521756    6.6017795215 	-1	 238	 239	 0	 0
O        12.2253626004   13.6782521756    8.2267795215 	-1	 239	 240	 0	 0
O        12.5363626004   13.2702521756   10.8287795215 	-1	 241	 240	 0	 0
O        15.0833626004   13.2972521756   10.1297795215 	-1	 241	 237	 0	 0
O        11.9753626004   11.2352521756    9.2077795215 	-1	 110	 240	 0	 0
O        18.3193626004   12.6502521756   12.7267795215 	-1	 235	 236	 0	 0
O        14.3733626004   12.6912521756   12.6527795215 	-1	 241	 234	 0	 0
O        10.0243626004    9.4592521756    9.6867795215 	-1	 110	 248	 0	 0
O        10.1343626004   13.0652521756    9.7687795215 	-1	 253	 240	 0	 0
O        19.2293626004   14.9552521756   11.8587795215 	-1	 242	 236	 0	 0
O        14.1533626004   15.1392521756   11.8147795215 	-1	 241	 247	 0	 0
O        16.0243626004   15.2842521756    6.4377795215 	-1	 244	 238	 0	 0
O        12.6693626004   15.3432521756    6.2357795215 	-1	 245	 239	 0	 0
O        17.8513626004   16.5492521756   10.2567795215 	-1	 242	 243	 0	 0
O        16.6983626004   17.3202521756    8.0157795215 	-1	 243	 244	 0	 0
O        14.3723626004   17.3462521756    6.7447795215 	-1	 244	 245	 0	 0
O        12.2473626004   16.9532521756    8.2867795215 	-1	 245	 246	 0	 0
O        12.6713626004   17.1422521756   10.8987795215 	-1	 246	 247	 0	 0
O        15.2103626004   16.9482521756   10.1717795215 	-1	 243	 247	 0	 0
O         9.7063626004    1.2002521756    9.4687795215 	-1	 121	 221	 0	 0
O        10.2683626004   17.6092521756    9.9287795215 	-1	 226	 246	 0	 0
O         7.4223626004    9.1222521756    9.9177795215 	-1	 249	 248	 0	 0
O         6.5143626004    9.2612521756   12.3857795215 	-1	 249	 664	 0	 0
O         4.2553626004    9.6972521756    0.1917795215 	-1	 250	 251	 0	 0
O         4.8313626004    9.4632521756   10.3657795215 	-1	 249	 252	 0	 0
O         7.6803626004   13.7852521756   10.3957795215 	-1	 253	 254	 0	 0
O         6.4253626004   13.3512521756   12.6467795215 	-1	 666	 254	 0	 0
O         4.1973626004   13.7952521756    0.5187795215 	-1	 255	 256	 0	 0
O         5.0243626004   13.5812521756   10.4097795215 	-1	 257	 254	 0	 0
O         6.5413626004   11.4392521756   10.8117795215 	-1	 249	 254	 0	 0
O         8.7343626004    7.8942521756    7.9887795215 	-1	 111	 248	 0	 0
O         8.4393626004   10.5272521756    7.8667795215 	-1	 261	 248	 0	 0
O         8.2583626004   13.1892521756    7.8637795215 	-1	 253	 261	 0	 0
O         3.9843626004    7.9032521756    8.3667795215 	-1	 265	 252	 0	 0
O         4.1373626004   10.5342521756    8.0237795215 	-1	 260	 252	 0	 0
O         4.2483626004   13.1932521756    7.8707795215 	-1	 257	 260	 0	 0
O        20.1963626004   12.7032521756   10.8227795215 	-1	 236	 550	 0	 0
O         3.0703626004   12.0442521756    3.2267795215 	-1	 258	 259	 0	 0
O         3.9383626004   11.7422521756    5.6947795215 	-1	 259	 260	 0	 0
O         6.2573626004   11.7022521756    6.9687795215 	-1	 260	 261	 0	 0
O         8.5223626004   11.8972521756    5.6037795215 	-1	 113	 261	 0	 0
O         8.1913626004   11.7342521756    2.9737795215 	-1	 113	 262	 0	 0
O         5.6523626004   11.6512521756    3.6827795215 	-1	 259	 262	 0	 0
O         2.8133626004    7.3432521756    3.4387795215 	-1	 263	 264	 0	 0
O         3.9813626004    7.6762521756    5.7487795215 	-1	 265	 264	 0	 0
O         6.2803626004    7.5502521756    7.0697795215 	-1	 265	 111	 0	 0
O         5.4743626004    7.5612521756    3.5607795215 	-1	 112	 264	 0	 0
O         3.9113626004    9.6702521756    3.9967795215 	-1	 259	 264	 0	 0
O         1.7353626004   13.4062521756    1.4007795215 	-1	 258	 256	 0	 0
O         2.0293626004   10.7952521756    1.0827795215 	-1	 258	 251	 0	 0
O         2.2503626004    8.1382521756    0.9597795215 	-1	 251	 263	 0	 0
O         6.4823626004   13.3422521756    1.7907795215 	-1	 262	 255	 0	 0
O         6.4103626004   10.7342521756    1.2987795215 	-1	 250	 262	 0	 0
O         6.1983626004    8.0902521756    1.0317795215 	-1	 250	 112	 0	 0
O        10.5563626004   11.3452521756    3.9757795215 	-1	 113	 109	 0	 0
Si        8.3553626004    1.5252521756    8.6367795215 	-2	 185	 143	 686	 135
Si        6.0183626004    1.0122521756   10.6237795215 	-2	 138	 685	 135	 136
Si        5.5913626004    1.9072521756    0.1347795215 	-2	 137	 267	 700	 152
Si        2.4093626004    2.1752521756    0.0447795215 	-2	 137	 1222	 150	 151
Si        3.5613626004    1.7772521756    8.8787795215 	-2	 138	 1205	 125	 144
Si        8.9143626004   16.9382521756    9.3307795215 	-2	 186	 139	 126	 1435
Si        6.5713626004   17.8242521756   11.1947795215 	-2	 1210	 139	 140	 142
Si        5.8913626004   17.3292521756    0.6537795215 	-2	 1434	 141	 269	 128
Si        2.7623626004   17.4042521756    0.5077795215 	-2	 129	 1209	 141	 1223
Si        4.0763626004   17.1482521756    9.3297795215 	-2	 1207	 142	 127	 1208
Si        1.6113626004    4.2832521756    2.1577795215 	-2	 130	 131	 1214	 151
Si        3.8863626004    3.3072521756    4.0477795215 	-2	 146	 130	 148	 149
Si        4.5703626004    3.9922521756    7.0337795215 	-2	 146	 147	 154	 125
Si       14.7053626004   11.2612521756   13.3337795215 	-23	 585	 172	 85	 158
Si       17.9133626004   11.2562521756   13.4507795215 	-23	 586	 171	 84	 158
Si       18.8733626004   13.4372521756   11.4197795215 	-2	 202	 171	 164	 175
Si       16.4923626004   12.7812521756    9.4997795215 	-23	 169	 83	 164	 165
Si       15.8613626004   13.6882521756    6.5697795215 	-2	 177	 163	 165	 166
Si       12.7543626004   13.7902521756    6.6957795215 	-2	 162	 178	 166	 167
Si       11.7163626004   12.8132521756    9.5017795215 	-2	 170	 174	 167	 168
Si       14.0423626004   13.5942521756   11.3497795215 	-2	 169	 176	 172	 168
Si       18.9403626004   16.5022521756   11.4597795215 	-2	 145	 179	 1423	 175
Si       16.6603626004   17.4532521756    9.6277795215 	-2	 179	 180	 1215	 184
Si       15.9313626004   16.8822521756    6.6507795215 	-2	 177	 180	 181	 1432
Si       12.8113626004   16.8732521756    6.7677795215 	-2	 178	 1213	 181	 182
Si       11.8603626004   17.7652521756    9.6367795215 	-2	 186	 182	 183	 1216
Si       14.1563626004   16.7022521756   11.3957795215 	-2	 1217	 184	 183	 176
Si        8.6433626004    9.2642521756    8.8627795215 	-2	 173	 187	 196	 197
Si        6.3323626004    9.8312521756   10.8807795215 	-2	 195	 187	 188	 190
Si        5.8563626004    9.5302521756    0.3717795215 	-2	 305	 218	 219	 189
Si        2.6493626004    9.5432521756    0.2607795215 	-2	 1240	 189	 215	 216
Si        3.8343626004    9.3502521756    9.0857795215 	-2	 1219	 190	 199	 200
Si        8.8153626004   13.8532521756    9.2387795215 	-2	 126	 198	 191	 174
Si        6.4123626004   13.0362521756   11.0617795215 	-2	 194	 195	 191	 192
Si        5.7863626004   14.1542521756    0.5727795215 	-2	 193	 307	 217	 128
Si        2.6653626004   14.3442521756    0.4587795215 	-2	 193	 129	 214	 1241
Si        3.9803626004   14.0252521756    9.2377795215 	-2	 201	 194	 1221	 127
Si        1.8393626004   11.9822521756    2.1757795215 	-2	 203	 1211	 214	 215
Si        4.1453626004   11.2702521756    4.1577795215 	-2	 203	 204	 213	 208
Si        4.6553626004   11.7992521756    7.1507795215 	-2	 201	 204	 205	 200
Si        7.8663626004   11.8262521756    7.0807795215 	-2	 198	 197	 205	 206
Si        6.6713626004   11.8652521756    2.4297795215 	-2	 217	 218	 207	 208
Si        1.6863626004    7.3642521756    2.2707795215 	-2	 209	 131	 1212	 216
Si        4.0573626004    8.0642521756    4.1787795215 	-2	 209	 210	 212	 213
Si        4.7023626004    7.1672521756    7.1117795215 	-2	 210	 154	 199	 211
O         7.1903626004    2.0752521756   -3.7892204785 	-1	 313	 312	 0	 0
O         6.3213626004    1.8542521756   -1.3142204785 	-1	 313	 223	 0	 0
O         7.8183626004   17.3672521756   -2.9982204785 	-1	 314	 315	 0	 0
O         6.6443626004   17.7922521756   -0.7052204785 	-1	 315	 228	 0	 0
O         5.1883626004   17.8162521756   -2.9272204785 	-1	 315	 316	 0	 0
O        19.8503626004    1.2072521756   -3.0292204785 	-1	 327	 1080	 0	 0
O        20.3733626004   17.5662521756   -2.5362204785 	-1	 331	 1084	 0	 0
O         9.2473626004   15.7622521756   -4.5402204785 	-1	 337	 314	 0	 0
O         4.2183626004   15.9602521756   -4.5802204785 	-1	 339	 316	 0	 0
O        16.3673626004   11.4452521756    0.0087795215 	-1	 317	 318	 0	 0
O        16.4133626004    7.3772521756   -0.3062204785 	-1	 114	 117	 0	 0
O        17.5473626004    9.1882521756   -3.0042204785 	-1	 319	 320	 0	 0
O        12.4233626004    9.4322521756   -2.7462204785 	-1	 321	 322	 0	 0
O        14.9543626004    9.5512521756   -3.4342204785 	-1	 322	 320	 0	 0
O        17.8033626004   13.8352521756   -3.2112204785 	-1	 323	 324	 0	 0
O        12.5943626004   13.6372521756   -2.6392204785 	-1	 325	 326	 0	 0
O        15.1423626004   13.6642521756   -3.3382204785 	-1	 324	 326	 0	 0
O        16.6673626004   11.5422521756   -3.7862204785 	-1	 324	 320	 0	 0
O        12.0343626004   11.6032521756   -4.2602204785 	-1	 321	 325	 0	 0
O        18.8603626004    7.7512521756   -1.2342204785 	-1	 117	 319	 0	 0
O        18.6173626004   10.3642521756   -0.8192204785 	-1	 318	 319	 0	 0
O        18.3783626004   13.0172521756   -0.7412204785 	-1	 323	 318	 0	 0
O        14.1373626004    7.8112521756   -1.5882204785 	-1	 322	 114	 0	 0
O        14.1773626004   10.4112521756   -1.0272204785 	-1	 322	 317	 0	 0
O        14.4323626004   13.0582521756   -0.8152204785 	-1	 317	 326	 0	 0
O        10.0833626004    9.8272521756   -3.7812204785 	-1	 321	 335	 0	 0
O        10.1933626004   13.4322521756   -3.6992204785 	-1	 337	 325	 0	 0
O        19.2883626004   15.3222521756   -1.6092204785 	-1	 323	 331	 0	 0
O        14.2123626004   15.5072521756   -1.6532204785 	-1	 334	 326	 0	 0
O        17.2693626004    1.6792521756   -3.2182204785 	-1	 327	 328	 0	 0
O        12.1573626004    1.7882521756   -3.0192204785 	-1	 329	 330	 0	 0
O        14.6673626004    1.4502521756   -3.7062204785 	-1	 330	 328	 0	 0
O        17.9093626004   16.9172521756   -3.2112204785 	-1	 331	 332	 0	 0
O        12.7303626004   17.5092521756   -2.5692204785 	-1	 333	 334	 0	 0
O        15.2693626004   17.3152521756   -3.2962204785 	-1	 332	 334	 0	 0
O        13.8053626004    0.5622521756   -1.3452204785 	-1	 330	 815	 0	 0
O         9.7653626004    1.5682521756   -3.9992204785 	-1	 329	 312	 0	 0
O        10.3273626004   17.9772521756   -3.5392204785 	-1	 314	 333	 0	 0
O         7.4813626004    9.4892521756   -3.5502204785 	-1	 335	 336	 0	 0
O         6.5733626004    9.6282521756   -1.0822204785 	-1	 250	 336	 0	 0
O         7.7393626004   14.1532521756   -3.0722204785 	-1	 337	 338	 0	 0
O         6.4843626004   13.7182521756   -0.8212204785 	-1	 338	 255	 0	 0
O         5.0833626004   13.9482521756   -3.0582204785 	-1	 338	 339	 0	 0
O         6.6003626004   11.8062521756   -2.6562204785 	-1	 338	 336	 0	 0
O        20.1523626004    9.4592521756   -2.7742204785 	-1	 1110	 319	 0	 0
O        20.2553626004   13.0702521756   -2.6452204785 	-1	 1114	 323	 0	 0
Si        8.4143626004    1.8932521756   -4.8312204785 	-2	 266	 1226	 302	 1312
Si        6.0773626004    1.3802521756   -2.8442204785 	-2	 794	 267	 1430	 266
Si        8.9733626004   17.3052521756   -4.1372204785 	-2	 273	 1227	 268	 303
Si        6.6303626004   18.1912521756   -2.2722204785 	-2	 1225	 268	 269	 270
Si        4.1353626004   17.5152521756   -4.1382204785 	-2	 274	 1228	 270	 1224
Si       14.7643626004   11.6292521756   -0.1342204785 	-2	 289	 290	 275	 157
Si       17.9723626004   11.6242521756   -0.0172204785 	-2	 275	 286	 159	 287
Si       18.7743626004    9.2092521756   -1.9472204785 	-2	 286	 310	 285	 277
Si       16.4483626004    9.9462521756   -3.9252204785 	-2	 283	 1229	 277	 279
Si       11.6703626004   10.0302521756   -4.0522204785 	-2	 1230	 291	 284	 278
Si       13.9373626004    9.3022521756   -2.1862204785 	-2	 289	 278	 279	 288
Si       18.9313626004   13.8042521756   -2.0482204785 	-2	 311	 293	 287	 280
Si       16.5513626004   13.1492521756   -3.9682204785 	-2	 282	 283	 1231	 280
Si       11.7753626004   13.1802521756   -3.9662204785 	-2	 284	 281	 292	 1232
Si       14.1013626004   13.9622521756   -2.1182204785 	-2	 281	 290	 294	 282
Si       18.4923626004    1.4662521756   -2.1722204785 	-2	 1194	 806	 295	 271
Si       16.1473626004    0.9572521756   -4.1472204785 	-2	 297	 804	 295	 1233
Si       11.3313626004    1.2762521756   -4.3172204785 	-2	 1234	 805	 302	 296
Si       13.6733626004    1.7412521756   -2.4472204785 	-2	 297	 1195	 301	 296
Si       18.9993626004   16.8692521756   -2.0072204785 	-2	 298	 1436	 293	 272
Si       16.7193626004   17.8202521756   -3.8402204785 	-2	 298	 1235	 300	 1237
Si       11.9193626004   18.1322521756   -3.8312204785 	-2	 299	 1236	 1238	 303
Si       14.2153626004   17.0702521756   -2.0722204785 	-2	 299	 300	 294	 1239
Si        8.7023626004    9.6312521756   -4.6052204785 	-2	 1243	 291	 1244	 304
Si        6.3913626004   10.1982521756   -2.5872204785 	-2	 305	 1429	 309	 304
Si        8.8743626004   14.2202521756   -4.2292204785 	-2	 273	 306	 292	 1245
Si        6.4703626004   13.4042521756   -2.4062204785 	-2	 306	 307	 308	 309
Si        4.0393626004   14.3922521756   -4.2302204785 	-2	 1242	 308	 1246	 274
O        27.2753626004    0.9902521756    9.7467795215 	-1	 485	 486	 0	 0
O        26.4063626004    0.7692521756   12.2217795215 	-1	 977	 486	 0	 0
O        24.1323626004    1.1402521756   -0.0102204785 	-1	 487	 488	 0	 0
O        21.8413626004    1.2262521756   12.1017795215 	-1	 489	 978	 0	 0
O        22.1683626004    1.0102521756    9.4617795215 	-1	 489	 490	 0	 0
O        24.6823626004    0.7852521756   10.2167795215 	-1	 490	 486	 0	 0
O        27.9033626004   16.2832521756   10.5377795215 	-1	 491	 492	 0	 0
O        26.7293626004   16.7082521756   12.8317795215 	-1	 979	 492	 0	 0
O        24.4823626004   17.0952521756    0.6447795215 	-1	 493	 494	 0	 0
O        22.3193626004   16.4522521756   12.5167795215 	-1	 980	 495	 0	 0
O        22.7203626004   16.7882521756    9.9207795215 	-1	 495	 496	 0	 0
O        25.2743626004   16.7322521756   10.6087795215 	-1	 492	 496	 0	 0
O        28.6953626004    2.2072521756    7.8957795215 	-1	 499	 485	 0	 0
O        23.9493626004    2.5412521756    8.3267795215 	-1	 490	 498	 0	 0
O        23.9383626004   -0.0567478244    7.7977795215 	-1	 490	 880	 0	 0
O        29.3333626004   14.6782521756    8.9957795215 	-1	 546	 491	 0	 0
O        24.3043626004   14.8752521756    8.9567795215 	-1	 551	 496	 0	 0
O        26.1443626004   15.0132521756    0.9097795215 	-1	 548	 493	 0	 0
O        22.7083626004   15.1532521756    1.0667795215 	-1	 549	 494	 0	 0
O        23.9803626004    2.9032521756    5.7047795215 	-1	 497	 498	 0	 0
O        26.2613626004    2.7822521756    7.0527795215 	-1	 498	 499	 0	 0
O        28.3243626004    3.1572521756    5.4307795215 	-1	 499	 500	 0	 0
O        28.0423626004    2.9352521756    2.8137795215 	-1	 500	 501	 0	 0
O        25.4973626004    2.9822521756    3.5257795215 	-1	 497	 501	 0	 0
O        23.7353626004    1.0172521756    3.8517795215 	-1	 497	 879	 0	 0
O        28.4143626004    0.7592521756    4.2997795215 	-1	 882	 500	 0	 0
O        21.8353626004    0.2532521756    0.9237795215 	-1	 878	 488	 0	 0
O        26.1683626004    2.5582521756    0.9587795215 	-1	 501	 487	 0	 0
O        30.4013626004    2.4712521756    3.9207795215 	-1	 524	 500	 0	 0
O        26.4753626004    4.9262521756    1.9887795215 	-1	 562	 501	 0	 0
O        24.6193626004    4.8662521756    7.3707795215 	-1	 498	 559	 0	 0
O        28.0253626004    4.7322521756    7.5257795215 	-1	 499	 560	 0	 0
O        33.3133626004   10.9622521756    3.8737795215 	-1	 502	 503	 0	 0
O        34.2223626004   10.8602521756    1.4027795215 	-1	 1086	 503	 0	 0
O        36.4523626004   10.3602521756   13.5447795215 	-1	 505	 504	 0	 0
O        35.9033626004   10.6272521756    3.4237795215 	-1	 506	 503	 0	 0
O        33.0463626004    6.3032521756    3.3527795215 	-1	 507	 508	 0	 0
O        34.2693626004    6.7532521756    1.0947795215 	-1	 508	 1088	 0	 0
O        36.4983626004    6.2922521756   13.2297795215 	-1	 509	 510	 0	 0
O        35.7133626004    6.5692521756    3.3097795215 	-1	 508	 511	 0	 0
O        34.1613626004    8.6652521756    2.9327795215 	-1	 508	 503	 0	 0
O        31.9673626004   12.1742521756    5.7847795215 	-1	 521	 502	 0	 0
O        32.2203626004    9.5372521756    5.8897795215 	-1	 515	 502	 0	 0
O        32.4723626004    6.8862521756    5.8787795215 	-1	 507	 515	 0	 0
O        36.7313626004   12.2912521756    5.3557795215 	-1	 506	 520	 0	 0
O        36.5583626004    9.7042521756    5.8397795215 	-1	 506	 514	 0	 0
O        36.5043626004    7.0312521756    5.8437795215 	-1	 514	 511	 0	 0
O        20.6103626004   11.0042521756    3.0647795215 	-1	 118	 552	 0	 0
O        31.6023626004    4.6472521756    4.8487795215 	-1	 507	 524	 0	 0
O        36.4903626004    4.6012521756    4.9747795215 	-1	 563	 511	 0	 0
O        34.7023626004    4.3452521756   12.9217795215 	-1	 509	 526	 0	 0
O        38.1353626004    4.2222521756   12.7447795215 	-1	 510	 527	 0	 0
O        37.6323626004    8.1042521756   10.5327795215 	-1	 513	 512	 0	 0
O        36.7413626004    8.3542521756    8.0857795215 	-1	 513	 514	 0	 0
O        34.4433626004    8.4332521756    6.7667795215 	-1	 514	 515	 0	 0
O        32.2023626004    8.1412521756    8.1477795215 	-1	 515	 516	 0	 0
O        32.5083626004    8.3482521756   10.7897795215 	-1	 516	 517	 0	 0
O        35.0403626004    8.4672521756   10.1017795215 	-1	 513	 517	 0	 0
O        37.8883626004   12.7512521756   10.3257795215 	-1	 518	 519	 0	 0
O        36.7203626004   12.4532521756    8.0017795215 	-1	 519	 520	 0	 0
O        34.4353626004   12.5372521756    6.6697795215 	-1	 521	 520	 0	 0
O        32.3693626004   12.9612521756    8.2947795215 	-1	 521	 522	 0	 0
O        32.6803626004   12.5532521756   10.8977795215 	-1	 522	 523	 0	 0
O        35.2283626004   12.5802521756   10.1977795215 	-1	 523	 519	 0	 0
O        36.7533626004   10.4582521756    9.7507795215 	-1	 513	 519	 0	 0
O        32.1193626004   10.5182521756    9.2757795215 	-1	 522	 516	 0	 0
O        38.9463626004    6.6662521756   12.3017795215 	-1	 510	 512	 0	 0
O        38.7023626004    9.2792521756   12.7167795215 	-1	 505	 512	 0	 0
O        38.4633626004   11.9332521756   12.7957795215 	-1	 505	 518	 0	 0
O        34.2223626004    6.7262521756   11.9487795215 	-1	 509	 517	 0	 0
O        34.2623626004    9.3262521756   12.5087795215 	-1	 517	 504	 0	 0
O        34.5173626004   11.9742521756   12.7217795215 	-1	 523	 504	 0	 0
O        30.1683626004    8.7422521756    9.7547795215 	-1	 540	 516	 0	 0
O        30.2783626004   12.3482521756    9.8367795215 	-1	 546	 522	 0	 0
O        39.3733626004   14.2382521756   11.9267795215 	-1	 534	 518	 0	 0
O        34.2973626004   14.4222521756   11.8827795215 	-1	 523	 539	 0	 0
O        36.1683626004   14.5682521756    6.5057795215 	-1	 536	 520	 0	 0
O        32.8133626004   14.6262521756    6.3047795215 	-1	 521	 537	 0	 0
O        32.8433626004    3.0502521756    3.1427795215 	-1	 524	 525	 0	 0
O        34.0643626004    2.5802521756    0.8957795215 	-1	 1098	 525	 0	 0
O        36.3633626004    2.2692521756   13.1427795215 	-1	 526	 527	 0	 0
O        35.4823626004    2.5802521756    3.1607795215 	-1	 563	 525	 0	 0
O        33.7233626004    0.6312521756    2.6537795215 	-1	 890	 525	 0	 0
O        31.8883626004   -0.3157478244    5.5817795215 	-1	 889	 531	 0	 0
O        32.4203626004    2.2892521756    5.6727795215 	-1	 531	 524	 0	 0
O        36.1823626004    2.0842521756    5.9517795215 	-1	 530	 563	 0	 0
O        37.3543626004    0.5952521756   10.3187795215 	-1	 529	 528	 0	 0
O        36.5003626004    0.2992521756    7.8527795215 	-1	 529	 530	 0	 0
O        34.1513626004    0.5012521756    6.6557795215 	-1	 530	 531	 0	 0
O        31.8633626004    0.9972521756    7.8827795215 	-1	 531	 532	 0	 0
O        32.2423626004    0.7042521756   10.5167795215 	-1	 532	 533	 0	 0
O        34.7523626004    0.3652521756    9.8307795215 	-1	 529	 533	 0	 0
O        37.9953626004   15.8322521756   10.3247795215 	-1	 534	 535	 0	 0
O        36.8423626004   16.6032521756    8.0837795215 	-1	 535	 536	 0	 0
O        34.5163626004   16.6292521756    6.8127795215 	-1	 537	 536	 0	 0
O        32.3913626004   16.2362521756    8.3557795215 	-1	 537	 538	 0	 0
O        32.8153626004   16.4252521756   10.9677795215 	-1	 538	 539	 0	 0
O        35.3543626004   16.2312521756   10.2397795215 	-1	 539	 535	 0	 0
O        38.7823626004    1.7462521756   12.2187795215 	-1	 527	 528	 0	 0
O        34.1173626004    2.0962521756   11.7387795215 	-1	 533	 526	 0	 0
O        33.8903626004   -0.5227478244   12.1917795215 	-1	 891	 533	 0	 0
O        29.8503626004    0.4832521756    9.5377795215 	-1	 532	 485	 0	 0
O        30.4133626004   16.8922521756    9.9977795215 	-1	 538	 491	 0	 0
O        27.5663626004    8.4052521756    9.9867795215 	-1	 540	 541	 0	 0
O        26.6583626004    8.5442521756   12.4547795215 	-1	 1003	 541	 0	 0
O        24.3993626004    8.9802521756    0.2607795215 	-1	 542	 543	 0	 0
O        22.1123626004    8.4292521756   12.2997795215 	-1	 1004	 544	 0	 0
O        22.4473626004    8.7462521756    9.6787795215 	-1	 545	 544	 0	 0
O        24.9753626004    8.7462521756   10.4347795215 	-1	 545	 541	 0	 0
O        27.8243626004   13.0682521756   10.4637795215 	-1	 546	 547	 0	 0
O        26.5693626004   12.6342521756   12.7157795215 	-1	 547	 1005	 0	 0
O        24.3413626004   13.0782521756    0.5877795215 	-1	 548	 549	 0	 0
O        22.2313626004   13.2122521756   12.4587795215 	-1	 1006	 550	 0	 0
O        22.6133626004   13.0242521756    9.8367795215 	-1	 550	 551	 0	 0
O        25.1683626004   12.8642521756   10.4777795215 	-1	 547	 551	 0	 0
O        26.6853626004   10.7222521756   10.8797795215 	-1	 547	 541	 0	 0
O        22.0443626004   10.8542521756   11.2687795215 	-1	 550	 544	 0	 0
O        28.8783626004    7.1772521756    8.0567795215 	-1	 540	 560	 0	 0
O        28.5843626004    9.8112521756    7.9357795215 	-1	 555	 540	 0	 0
O        28.4023626004   12.4722521756    7.9327795215 	-1	 546	 555	 0	 0
O        24.1283626004    7.1862521756    8.4357795215 	-1	 545	 559	 0	 0
O        24.2823626004    9.8172521756    8.0917795215 	-1	 545	 554	 0	 0
O        24.3923626004   12.4762521756    7.9387795215 	-1	 554	 551	 0	 0
O        23.2143626004   11.3272521756    3.2957795215 	-1	 553	 552	 0	 0
O        24.0823626004   11.0252521756    5.7627795215 	-1	 553	 554	 0	 0
O        26.4013626004   10.9852521756    7.0377795215 	-1	 554	 555	 0	 0
O        28.6663626004   11.1802521756    5.6727795215 	-1	 555	 556	 0	 0
O        28.3353626004   11.0172521756    3.0427795215 	-1	 556	 557	 0	 0
O        25.7963626004   10.9342521756    3.7517795215 	-1	 553	 557	 0	 0
O        22.9573626004    6.6262521756    3.5077795215 	-1	 558	 119	 0	 0
O        24.1263626004    6.9592521756    5.8177795215 	-1	 558	 559	 0	 0
O        26.4243626004    6.8332521756    7.1387795215 	-1	 559	 560	 0	 0
O        28.4983626004    6.4042521756    5.5377795215 	-1	 561	 560	 0	 0
O        28.1673626004    6.7552521756    2.9347795215 	-1	 561	 562	 0	 0
O        25.6183626004    6.8442521756    3.6287795215 	-1	 562	 558	 0	 0
O        24.0553626004    8.9532521756    4.0647795215 	-1	 553	 558	 0	 0
O        28.7653626004    8.8212521756    4.4987795215 	-1	 561	 556	 0	 0
O        21.8793626004   12.6892521756    1.4697795215 	-1	 549	 552	 0	 0
O        22.1733626004   10.0782521756    1.1507795215 	-1	 543	 552	 0	 0
O        22.3943626004    7.4212521756    1.0287795215 	-1	 119	 543	 0	 0
O        26.6263626004   12.6252521756    1.8597795215 	-1	 548	 557	 0	 0
O        26.5543626004   10.0172521756    1.3667795215 	-1	 557	 542	 0	 0
O        26.3423626004    7.3732521756    1.1007795215 	-1	 562	 542	 0	 0
O        30.7003626004   10.6282521756    4.0447795215 	-1	 556	 502	 0	 0
O        30.5823626004    6.9522521756    3.9797795215 	-1	 561	 507	 0	 0
Si       28.4993626004    0.8082521756    8.7047795215 	-2	 441	 340	 829	 352
Si       26.1623626004    0.2952521756   10.6927795215 	-2	 345	 827	 340	 341
Si       25.7353626004    1.1902521756    0.2027795215 	-2	 842	 1021	 342	 367
Si       22.5533626004    1.4582521756    0.1137795215 	-2	 1022	 1197	 342	 366
Si       21.3433626004    0.4732521756   10.7527795215 	-23	 81	 828	 343	 344
Si       23.7053626004    1.0602521756    8.9467795215 	-2	 345	 354	 353	 344
Si       29.0583626004   16.2212521756    9.3987795215 	-2	 346	 355	 442	 1437
Si       26.7163626004   17.1072521756   11.2637795215 	-2	 346	 347	 1247	 351
Si       26.0353626004   16.6122521756    0.7217795215 	-2	 1433	 1026	 348	 357
Si       22.9073626004   16.6872521756    0.5767795215 	-2	 1027	 348	 358	 1252
Si       21.9053626004   17.3332521756   11.2187795215 	-2	 145	 349	 350	 1248
Si       24.2203626004   16.4312521756    9.3987795215 	-2	 1249	 356	 350	 351
Si       24.0303626004    2.5902521756    4.1167795215 	-2	 364	 363	 1196	 359
Si       24.7143626004    3.2752521756    7.1017795215 	-2	 353	 370	 359	 360
Si       27.8303626004    3.2162521756    6.9707795215 	-2	 361	 371	 352	 360
Si       28.8053626004    2.3282521756    4.1197795215 	-2	 361	 362	 365	 368
Si       26.5443626004    3.3432521756    2.3267795215 	-2	 369	 362	 363	 367
Si       32.0683626004   10.8132521756    4.8977795215 	-2	 483	 372	 381	 382
Si       34.4073626004   10.2682521756    2.9007795215 	-2	 372	 380	 373	 375
Si       34.8493626004   10.5442521756   13.4017795215 	-2	 410	 411	 374	 923
Si       38.0583626004   10.5392521756   13.5187795215 	-2	 1343	 374	 407	 408
Si       36.8903626004   10.8132521756    4.7047795215 	-2	 385	 1254	 375	 384
Si       31.9223626004    6.1972521756    4.5137795215 	-2	 388	 376	 383	 484
Si       34.3033626004    7.0672521756    2.6797795215 	-2	 377	 379	 380	 376
Si       34.9103626004    5.9222521756   13.1777795215 	-2	 409	 378	 390	 926
Si       38.0303626004    5.7472521756   13.2867795215 	-2	 1345	 378	 406	 391
Si       36.7203626004    6.1072521756    4.5077795215 	-2	 386	 379	 389	 1256
Si       38.8593626004    8.1242521756   11.5887795215 	-2	 1263	 406	 407	 392
Si       36.5333626004    8.8622521756    9.6107795215 	-2	 393	 404	 397	 392
Si       36.0513626004    8.3782521756    6.6147795215 	-2	 385	 386	 394	 393
Si       32.8393626004    8.2542521756    6.6637795215 	-2	 394	 395	 382	 383
Si       31.7563626004    8.9462521756    9.4847795215 	-2	 395	 396	 405	 412
Si       34.0223626004    8.2172521756   11.3497795215 	-2	 409	 410	 396	 397
Si       39.0173626004   12.7202521756   11.4877795215 	-2	 1264	 398	 414	 408
Si       36.6363626004   12.0642521756    9.5677795215 	-2	 403	 404	 398	 399
Si       36.0053626004   12.9712521756    6.6387795215 	-2	 416	 384	 399	 400
Si       32.8983626004   13.0732521756    6.7637795215 	-2	 417	 381	 401	 400
Si       31.8603626004   12.0962521756    9.5697795215 	-2	 401	 402	 405	 413
Si       34.1863626004   12.8772521756   11.4177795215 	-2	 402	 403	 415	 411
Si       31.8263626004    3.1012521756    4.3947795215 	-2	 418	 388	 424	 368
Si       34.0873626004    2.2162521756    2.4857795215 	-2	 418	 419	 421	 422
Si       34.8023626004    2.7362521756   13.0647795215 	-2	 420	 390	 439	 944
Si       37.9323626004    2.6822521756   13.2417795215 	-2	 1351	 420	 438	 391
Si       38.5773626004    0.3822521756   11.3647795215 	-2	 426	 867	 1250	 438
Si       36.2323626004   -0.1277478244    9.3897795215 	-2	 865	 426	 427	 431
Si       35.7593626004    0.6072521756    6.4267795215 	-2	 425	 858	 427	 428
Si       32.5923626004    0.8662521756    6.4367795215 	-2	 428	 429	 423	 424
Si       31.4163626004    0.1912521756    9.2187795215 	-2	 441	 866	 429	 430
Si       33.7593626004    0.6562521756   11.0887795215 	-2	 431	 430	 439	 440
Si       39.0853626004   15.7852521756   11.5287795215 	-2	 1425	 1251	 414	 432
Si       36.8043626004   16.7362521756    9.6957795215 	-2	 433	 1260	 437	 432
Si       36.0763626004   16.1662521756    6.7187795215 	-2	 433	 434	 1443	 416
Si       32.9553626004   16.1562521756    6.8367795215 	-2	 417	 434	 435	 1259
Si       32.0043626004   17.0482521756    9.7057795215 	-2	 442	 435	 436	 1261
Si       34.3003626004   15.9852521756   11.4647795215 	-2	 436	 437	 1262	 415
Si       28.7873626004    8.5472521756    8.9317795215 	-2	 457	 458	 443	 412
Si       26.4763626004    9.1142521756   10.9497795215 	-2	 443	 444	 455	 448
Si       26.0003626004    8.8132521756    0.4397795215 	-2	 481	 482	 1067	 445
Si       22.7933626004    8.8262521756    0.3297795215 	-2	 1068	 445	 478	 479
Si       21.6773626004    9.2952521756   10.9997795215 	-23	 456	 446	 447	 88
Si       23.9793626004    8.6332521756    9.1547795215 	-2	 460	 461	 447	 448
Si       28.9593626004   13.1362521756    9.3077795215 	-2	 449	 459	 413	 355
Si       26.5563626004   12.3192521756   11.1307795215 	-2	 449	 450	 454	 455
Si       25.9303626004   13.4372521756    0.6407795215 	-2	 451	 357	 1072	 480
Si       22.8093626004   13.6272521756    0.5277795215 	-2	 1073	 451	 477	 358
Si       21.7733626004   12.4492521756   11.1037795215 	-2	 202	 452	 453	 456
Si       24.1243626004   13.3082521756    9.3057795215 	-2	 454	 356	 453	 462
Si       21.9833626004   11.2652521756    2.2437795215 	-2	 387	 477	 478	 463
Si       24.2893626004   10.5532521756    4.2267795215 	-2	 475	 468	 463	 464
Si       24.7993626004   11.0822521756    7.2197795215 	-2	 465	 461	 462	 464
Si       28.0103626004   11.1092521756    7.1487795215 	-2	 465	 458	 459	 466
Si       29.1183626004   10.3982521756    4.3217795215 	-2	 483	 466	 467	 476
Si       26.8153626004   11.1482521756    2.4977795215 	-2	 481	 467	 468	 480
Si       24.2013626004    7.3482521756    4.2467795215 	-2	 474	 475	 469	 470
Si       24.8463626004    6.4502521756    7.1807795215 	-2	 370	 460	 470	 471
Si       27.9613626004    6.2862521756    7.0607795215 	-2	 457	 371	 471	 472
Si       29.0083626004    7.2372521756    4.2407795215 	-2	 473	 476	 484	 472
Si       26.6503626004    6.4752521756    2.4177795215 	-2	 369	 474	 482	 473
Si       36.5903626004    2.9262521756    4.4477795215 	-2	 425	 389	 421	 1258
O         3.9293626004    1.4902521756   13.3887795215 	-1	 637	 638	 0	 0
O         4.2793626004   17.4452521756   14.0437795215 	-1	 639	 640	 0	 0
O         5.9413626004   15.3622521756   14.3097795215 	-1	 666	 639	 0	 0
O         2.5053626004   15.5022521756   14.4667795215 	-1	 667	 640	 0	 0
O         2.6733626004    3.8212521756   16.8037795215 	-1	 641	 642	 0	 0
O         3.7763626004    3.2522521756   19.1047795215 	-1	 642	 643	 0	 0
O         6.0583626004    3.1312521756   20.4517795215 	-1	 643	 644	 0	 0
O         8.1213626004    3.5062521756   18.8307795215 	-1	 644	 645	 0	 0
O         7.8393626004    3.2852521756   16.2127795215 	-1	 645	 646	 0	 0
O         5.2943626004    3.3312521756   16.9257795215 	-1	 642	 646	 0	 0
O         3.5323626004    1.3662521756   17.2507795215 	-1	 777	 642	 0	 0
O         8.2113626004    1.1092521756   17.6987795215 	-1	 780	 645	 0	 0
O         1.6323626004    0.6032521756   14.3227795215 	-1	 638	 776	 0	 0
O         2.1293626004    3.2272521756   14.2667795215 	-1	 641	 638	 0	 0
O         5.9653626004    2.9082521756   14.3577795215 	-1	 637	 646	 0	 0
O        10.1983626004    2.8202521756   17.3197795215 	-1	 659	 645	 0	 0
O         1.2693626004    5.4812521756   15.3027795215 	-1	 641	 674	 0	 0
O         6.2723626004    5.2762521756   15.3877795215 	-1	 646	 679	 0	 0
O         4.4163626004    5.2152521756   20.7707795215 	-1	 643	 676	 0	 0
O         7.8223626004    5.0822521756   20.9247795215 	-1	 644	 677	 0	 0
O        13.1103626004   11.3122521756   17.2737795215 	-1	 647	 648	 0	 0
O        14.0193626004   11.2092521756   14.8017795215 	-1	 234	 648	 0	 0
O        18.5043626004   11.3052521756   14.9567795215 	-1	 649	 235	 0	 0
O        18.2123626004   10.9842521756   17.5887795215 	-1	 649	 650	 0	 0
O        15.7003626004   10.9772521756   16.8237795215 	-1	 650	 648	 0	 0
O        12.8433626004    6.6532521756   16.7517795215 	-1	 651	 652	 0	 0
O        18.0453626004    6.6962521756   17.3757795215 	-1	 653	 654	 0	 0
O        15.5103626004    6.9192521756   16.7087795215 	-1	 652	 654	 0	 0
O        13.9583626004    9.0142521756   16.3317795215 	-1	 652	 648	 0	 0
O        18.6023626004    8.8832521756   15.9767795215 	-1	 649	 653	 0	 0
O        11.7643626004   12.5232521756   19.1847795215 	-1	 658	 647	 0	 0
O        12.0173626004    9.8872521756   19.2897795215 	-1	 647	 656	 0	 0
O        12.2693626004    7.2352521756   19.2787795215 	-1	 651	 656	 0	 0
O        16.5283626004   12.6402521756   18.7547795215 	-1	 657	 650	 0	 0
O        16.3553626004   10.0542521756   19.2387795215 	-1	 650	 655	 0	 0
O        16.3013626004    7.3812521756   19.2427795215 	-1	 654	 655	 0	 0
O        11.3993626004    4.9962521756   18.2477795215 	-1	 651	 659	 0	 0
O        16.2873626004    4.9502521756   18.3737795215 	-1	 654	 680	 0	 0
O        14.2403626004    8.7832521756   20.1667795215 	-1	 655	 656	 0	 0
O        14.2323626004   12.8872521756   20.0697795215 	-1	 657	 658	 0	 0
O        12.6403626004    3.3992521756   16.5427795215 	-1	 659	 660	 0	 0
O        18.0043626004    2.8912521756   17.3247795215 	-1	 661	 680	 0	 0
O        15.2793626004    2.9292521756   16.5597795215 	-1	 660	 680	 0	 0
O        13.5203626004    0.9802521756   16.0527795215 	-1	 785	 660	 0	 0
O        18.3463626004    0.8162521756   15.6497795215 	-1	 786	 661	 0	 0
O        11.6843626004    0.0332521756   18.9807795215 	-1	 663	 784	 0	 0
O        12.2173626004    2.6382521756   19.0717795215 	-1	 659	 663	 0	 0
O        15.9793626004    2.4332521756   19.3507795215 	-1	 662	 680	 0	 0
O        13.9483626004    0.8502521756   20.0547795215 	-1	 662	 663	 0	 0
O         4.1963626004    9.3302521756   13.6597795215 	-1	 665	 664	 0	 0
O         4.1383626004   13.4272521756   13.9867795215 	-1	 666	 667	 0	 0
O         3.0113626004   11.6762521756   16.6947795215 	-1	 668	 669	 0	 0
O         3.8793626004   11.3742521756   19.1627795215 	-1	 669	 670	 0	 0
O         6.1983626004   11.3342521756   20.4367795215 	-1	 670	 671	 0	 0
O         8.4633626004   11.5292521756   19.0717795215 	-1	 671	 672	 0	 0
O         8.1323626004   11.3662521756   16.4417795215 	-1	 673	 672	 0	 0
O         5.5933626004   11.2842521756   17.1507795215 	-1	 673	 669	 0	 0
O         2.7543626004    6.9762521756   16.9067795215 	-1	 674	 675	 0	 0
O         3.9223626004    7.3082521756   19.2167795215 	-1	 675	 676	 0	 0
O         6.2213626004    7.1822521756   20.5377795215 	-1	 676	 677	 0	 0
O         8.2943626004    6.7532521756   18.9367795215 	-1	 677	 678	 0	 0
O         7.9643626004    7.1052521756   16.3337795215 	-1	 678	 679	 0	 0
O         5.4153626004    7.1932521756   17.0287795215 	-1	 675	 679	 0	 0
O         3.8523626004    9.3032521756   17.4637795215 	-1	 675	 669	 0	 0
O         8.5623626004    9.1712521756   17.8987795215 	-1	 678	 672	 0	 0
O         1.6763626004   13.0392521756   14.8687795215 	-1	 667	 668	 0	 0
O         1.9703626004   10.4282521756   14.5507795215 	-1	 665	 668	 0	 0
O         2.1913626004    7.7702521756   14.4277795215 	-1	 665	 674	 0	 0
O         6.4233626004   12.9752521756   15.2587795215 	-1	 673	 666	 0	 0
O         6.3513626004   10.3662521756   14.7657795215 	-1	 673	 664	 0	 0
O         6.1393626004    7.7222521756   14.4997795215 	-1	 679	 664	 0	 0
O        10.4973626004   10.9772521756   17.4437795215 	-1	 647	 672	 0	 0
O        10.3793626004    7.3022521756   17.3787795215 	-1	 651	 678	 0	 0
Si        5.5323626004    1.5392521756   13.6027795215 	-2	 578	 564	 759	 136
Si        2.3503626004    1.8082521756   13.5127795215 	-2	 577	 564	 1204	 576
Si        5.8323626004   16.9622521756   14.1217795215 	-2	 1421	 140	 565	 566
Si        2.7043626004   17.0372521756   13.9757795215 	-2	 1268	 565	 1206	 567
Si        1.5523626004    3.9152521756   15.6257795215 	-2	 577	 1275	 580	 568
Si        3.8273626004    2.9402521756   17.5157795215 	-2	 569	 573	 574	 568
Si        4.5113626004    3.6242521756   20.5017795215 	-2	 569	 570	 1266	 582
Si        7.6273626004    3.5652521756   20.3707795215 	-2	 1265	 570	 571	 583
Si        8.6023626004    2.6772521756   17.5197795215 	-2	 571	 572	 579	 575
Si        6.3413626004    3.6932521756   15.7267795215 	-2	 578	 572	 573	 581
Si       11.8653626004   11.1632521756   18.2977795215 	-2	 594	 635	 595	 584
Si       14.2043626004   10.6172521756   16.2997795215 	-2	 585	 588	 592	 584
Si       18.9643626004   10.4432521756   16.2567795215 	-2	 593	 586	 587	 935
Si       16.6863626004   11.1622521756   18.1047795215 	-2	 587	 588	 597	 598
Si       11.7193626004    6.5472521756   17.9127795215 	-2	 596	 636	 589	 600
Si       14.0993626004    7.4162521756   16.0787795215 	-23	 89	 589	 591	 592
Si       18.8753626004    7.2882521756   16.1147795215 	-23	 593	 90	 590	 936
Si       16.5173626004    6.4572521756   17.9067795215 	-2	 601	 599	 590	 591
Si       15.8483626004    8.7282521756   20.0137795215 	-2	 1271	 602	 598	 599
Si       12.6363626004    8.6032521756   20.0637795215 	-2	 602	 595	 596	 1272
Si       15.8023626004   13.3202521756   20.0377795215 	-2	 1273	 603	 1420	 597
Si       12.6953626004   13.4222521756   20.1637795215 	-2	 594	 1419	 1274	 603
Si       11.6233626004    3.4502521756   17.7937795215 	-2	 610	 579	 604	 600
Si       13.8833626004    2.5662521756   15.8847795215 	-23	 91	 604	 606	 607
Si       18.7263626004    2.3712521756   16.0027795215 	-23	 92	 605	 950	 608
Si       15.5563626004    0.9572521756   19.8257795215 	-2	 771	 611	 612	 1276
Si       12.3893626004    1.2162521756   19.8357795215 	-2	 609	 610	 612	 1277
Si        5.7973626004    9.1622521756   13.8397795215 	-2	 633	 634	 188	 613
Si        2.5903626004    9.1762521756   13.7287795215 	-2	 1218	 613	 630	 631
Si        5.7273626004   13.7872521756   14.0407795215 	-2	 566	 632	 614	 192
Si        2.6063626004   13.9772521756   13.9267795215 	-2	 1220	 629	 614	 567
Si        1.7803626004   11.6142521756   15.6437795215 	-2	 629	 1269	 630	 615
Si        4.0863626004   10.9032521756   17.6257795215 	-2	 627	 620	 615	 616
Si        4.5963626004   11.4312521756   20.6187795215 	-2	 617	 1282	 1283	 616
Si        7.8073626004   11.4582521756   20.5487795215 	-2	 617	 618	 1279	 1280
Si        8.9153626004   10.7482521756   17.7207795215 	-2	 618	 619	 628	 635
Si        6.6123626004   11.4972521756   15.8977795215 	-2	 633	 619	 620	 632
Si        1.6273626004    6.9972521756   15.7387795215 	-2	 580	 621	 1270	 631
Si        3.9983626004    7.6972521756   17.6457795215 	-2	 626	 627	 621	 622
Si        4.6433626004    6.8002521756   20.5797795215 	-2	 1281	 582	 622	 623
Si        7.7583626004    6.6352521756   20.4597795215 	-2	 583	 1278	 623	 624
Si        8.8053626004    7.5872521756   17.6397795215 	-2	 625	 636	 628	 624
Si        6.4473626004    6.8242521756   15.8177795215 	-2	 625	 634	 581	 626
Si       16.3873626004    3.2762521756   17.8467795215 	-2	 601	 611	 605	 606
O         7.0493626004   -3.0127478244    9.9207795215 	-1	 723	 724	 0	 0
O         5.8753626004   -2.5877478244   12.2137795215 	-1	 724	 774	 0	 0
O         3.6273626004   -2.2007478244    0.0267795215 	-1	 725	 726	 0	 0
O         4.4193626004   -2.5637478244    9.9907795215 	-1	 724	 727	 0	 0
O         6.1353626004   -0.5987478244   10.4707795215 	-1	 724	 222	 0	 0
O         8.0853626004    0.3282521756    7.5747795215 	-1	 731	 221	 0	 0
O         7.7033626004   -2.3027478244    7.4437795215 	-1	 731	 723	 0	 0
O         3.7053626004   -1.9897478244    7.4627795215 	-1	 730	 727	 0	 0
O        19.6033626004   -2.8147478244   10.3827795215 	-1	 876	 740	 0	 0
O         5.2893626004   -4.2827478244    0.2927795215 	-1	 746	 725	 0	 0
O         1.8543626004   -4.1427478244    0.4487795215 	-1	 747	 726	 0	 0
O         2.6133626004   -0.5377478244    2.8787795215 	-1	 729	 728	 0	 0
O         3.5033626004   -0.4327478244    5.3537795215 	-1	 729	 730	 0	 0
O         5.8173626004   -0.6217478244    6.6297795215 	-1	 730	 731	 0	 0
O         8.0473626004   -0.9437478244    5.2447795215 	-1	 731	 124	 0	 0
O         7.7283626004   -0.5947478244    2.6247795215 	-1	 124	 732	 0	 0
O         5.2143626004   -0.3247478244    3.3457795215 	-1	 729	 732	 0	 0
O         1.2073626004   -1.6347478244    0.9337795215 	-1	 726	 728	 0	 0
O         5.8973626004   -2.0027478244    1.3867795215 	-1	 732	 725	 0	 0
O         6.0483626004    0.6142521756    0.9907795215 	-1	 732	 223	 0	 0
O        10.0963626004   -0.4087478244    3.6337795215 	-1	 124	 120	 0	 0
O        17.0333626004   -6.5447478244    9.7077795215 	-1	 733	 734	 0	 0
O        15.8653626004   -6.8427478244    7.3847795215 	-1	 734	 735	 0	 0
O        13.5803626004   -6.7577478244    6.0527795215 	-1	 735	 736	 0	 0
O        14.3733626004   -6.7157478244    9.5807795215 	-1	 737	 734	 0	 0
O        18.5193626004   -5.0577478244   11.3097795215 	-1	 740	 733	 0	 0
O        13.4423626004   -4.8737478244   11.2647795215 	-1	 737	 745	 0	 0
O        15.3143626004   -4.7277478244    5.8877795215 	-1	 742	 735	 0	 0
O        11.9593626004   -4.6697478244    5.6867795215 	-1	 743	 736	 0	 0
O        15.8593626004   -1.0217478244   13.1467795215 	-1	 738	 739	 0	 0
O        11.2343626004   -2.1797478244    5.2407795215 	-1	 743	 120	 0	 0
O        17.1403626004   -3.4637478244    9.7067795215 	-1	 740	 741	 0	 0
O        15.9873626004   -2.6927478244    7.4667795215 	-1	 741	 742	 0	 0
O        13.6613626004   -2.6667478244    6.1957795215 	-1	 742	 743	 0	 0
O        11.5373626004   -3.0597478244    7.7377795215 	-1	 743	 744	 0	 0
O        11.9613626004   -2.8707478244   10.3497795215 	-1	 745	 744	 0	 0
O        14.5003626004   -3.0647478244    9.6227795215 	-1	 745	 741	 0	 0
O        11.5293626004   -0.6807478244    8.9047795215 	-1	 121	 744	 0	 0
O        17.6563626004   -2.7577478244   12.2297795215 	-1	 739	 740	 0	 0
O        13.8683626004   -2.4687478244   12.1597795215 	-1	 745	 738	 0	 0
O         9.5583626004   -2.4037478244    9.3797795215 	-1	 723	 744	 0	 0
O         3.4873626004   -6.2177478244   -0.0302204785 	-1	 746	 747	 0	 0
Si        8.2033626004   -3.0747478244    8.7817795215 	-2	 681	 1440	 687	 721
Si        5.8613626004   -2.1887478244   10.6457795215 	-2	 681	 682	 684	 685
Si        5.1813626004   -2.6827478244    0.1047795215 	-2	 793	 690	 683	 699
Si        2.0523626004   -2.6077478244   -0.0412204785 	-2	 683	 698	 691	 1311
Si        3.3663626004   -2.8647478244    8.7807795215 	-2	 684	 1285	 1439	 688
[...]
 1151      Si     31.5393626004    -1.8637478244    17.9757795215
 1152      Si     33.8573626004    -1.3327478244    15.9867795215
 1153      Si     36.3333626004    -2.0527478244    17.7277795215
 1154      Si     35.3063626004    -4.2147478244    19.6377795215
 1155      Si     32.1853626004    -4.2237478244    19.7547795215
 1156      Si     25.1603626004    -6.9427478244    13.5597795215
 1157      Si     22.0403626004    -6.7527478244    13.4467795215
 1158      O      27.2523626004    -3.3627478244    -3.4792204785
 1159      O      26.0783626004    -2.9367478244    -1.1852204785
 1160      O      21.6683626004    -3.1937478244    -1.5002204785
 1161      O      22.0693626004    -2.8567478244    -4.0962204785
 1162      O      24.6223626004    -2.9137478244    -3.4082204785
 1163      O      26.3383626004    -0.9487478244    -2.9292204785
 1164      O      21.6253626004    -0.7557478244    -2.5232204785
 1165      O      37.2363626004    -6.8937478244    -3.6912204785
 1166      O      34.5763626004    -7.0657478244    -3.8192204785
 1167      O      38.7223626004    -5.4067478244    -2.0902204785
 1168      O      33.6453626004    -5.2227478244    -2.1342204785
 1169      O      36.0623626004    -1.3707478244    -0.2532204785
 1170      O      37.3433626004    -3.8127478244    -3.6922204785
 1171      O      32.1643626004    -3.2197478244    -3.0492204785
 1172      O      34.7033626004    -3.4147478244    -3.7772204785
 1173      O      36.4133626004    -1.3687478244    -3.8702204785
 1174      O      31.7323626004    -1.0297478244    -4.4942204785
 1175      O      38.3983626004    -0.5047478244    -1.1112204785
 1176      O      37.8593626004    -3.1077478244    -1.1692204785
 1177      O      34.0713626004    -2.8177478244    -1.2392204785
 1178      O      29.7613626004    -2.7527478244    -4.0192204785
 1179      Si     28.4063626004    -3.4237478244    -4.6182204785
 1180      Si     26.0643626004    -2.5387478244    -2.7532204785
 1181      Si     21.2533626004    -2.3117478244    -2.7982204785
 1182      Si     23.5693626004    -3.2147478244    -4.6182204785
 1183      Si     38.3653626004    -6.9247478244    -2.5292204785
 1184      Si     35.9853626004    -7.5807478244    -4.4492204785
 1185      Si     33.5353626004    -6.7677478244    -2.5992204785
 1186      Si     34.4543626004    -1.4537478244    -0.4532204785
 1187      Si     37.6383626004    -1.7227478244    -0.3492204785
 1188      Si     38.4333626004    -3.8607478244    -2.4882204785
 1189      Si     36.1533626004    -2.9097478244    -4.3212204785
 1190      Si     31.3533626004    -2.5967478244    -4.3112204785
 1191      Si     33.6483626004    -3.6597478244    -2.5522204785
 1192      O      14.6173626004     5.4302521756    -0.6142204785
 1193      O      18.0493626004     5.3072521756    -0.7912204785
 1194      O      18.6963626004     2.8312521756    -1.3172204785
 1195      O      14.0323626004     3.1812521756    -1.7972204785
 1196      O      22.8763626004     3.4722521756     3.4037795215
 1197      O      22.3323626004     2.8782521756     0.8677795215
 1198      O      21.4483626004     5.0102521756     1.8987795215
 1199      O      12.6633626004    -0.9817478244     3.3827795215
 1200      O      13.5703626004    -0.7517478244     0.9187795215
 1201      O      18.1393626004    -1.1907478244     1.0517795215
 1202      O      15.9403626004    -2.4257478244     4.8387795215
 1203      O      20.1753626004    -0.7487478244     2.7207795215
 1204      H       1.6973626004     1.9432521756    12.0327795215
 1205      H       2.0243626004     1.7272521756     9.3937795215
 1206      H       2.1753626004    17.1692521756    12.4487795215
 1207      H       2.5763626004    17.5052521756     9.8527795215
 1208      H       4.4153626004    18.0232521756     8.0117795215
 1209      H       1.9173626004    18.3782521756     1.4827795215
 1210      H       6.8463626004    19.4132521756    11.0197795215
 1211      H       0.4663626004    11.7212521756     2.9957795215
 1212      H       0.3683626004     8.1102521756     2.8627795215
 1213      H      11.9453626004    17.8322521756     5.7897795215
 1214      H       0.2673626004     3.5432521756     2.6577795215
 1215      H      16.9203626004    18.9942521756    10.0777795215
 1216      H      12.2403626004    19.3322521756     9.4547795215
 1217      H      14.5783626004    17.5442521756    12.7087795215
 1218      H       1.9683626004     9.1462521756    12.2317795215
 1219      H       2.3033626004     9.4632521756     9.6097795215
 1220      H       2.0873626004    13.9292521756    12.3897795215
 1221      H       2.4683626004    13.7412521756     9.7687795215
 1222      H       1.7563626004     2.3102521756    -1.4352204785
 1223      H       2.2343626004    17.5362521756    -1.0192204785
 1224      H       2.6353626004    17.8722521756    -3.6152204785
 1225      H       6.9053626004    19.7812521756    -2.4482204785
 1226      H       8.6103626004     3.2912521756    -5.6412204785
 1227      H       8.4723626004    18.0782521756    -5.4752204785
 1228      H       4.4743626004    18.3902521756    -5.4562204785
 1229      H      16.6563626004     9.4382521756    -5.4512204785
 1230      H      12.1173626004     9.2252521756    -5.3882204785
 1231      H      16.6343626004    13.5372521756    -5.5342204785
 1232      H      12.2843626004    14.0452521756    -5.2412204785
 1233      H      16.4143626004     1.3832521756    -5.6832204785
 1234      H      11.7783626004     2.0812521756    -5.6542204785
 1235      H      16.7573626004    17.6882521756    -5.4522204785
 1236      H      12.3063626004    17.3212521756    -5.1812204785
 1237      H      16.9793626004    19.3612521756    -3.3902204785
 1238      H      12.2993626004    19.6992521756    -4.0132204785
 1239      H      14.6373626004    17.9122521756    -0.7592204785
 1240      H       2.0273626004     9.5132521756    -1.2362204785
 1241      H       2.1463626004    14.2972521756    -1.0782204785
 1242      H       2.5273626004    14.1092521756    -3.6992204785
 1243      H       8.7923626004     8.2622521756    -5.4792204785
 1244      H       8.4983626004    10.8952521756    -5.6012204785
 1245      H       8.3173626004    13.5562521756    -5.6042204785
 1246      H       4.3063626004    13.5602521756    -5.5972204785
 1247      H      26.9903626004    18.6972521756    11.0877795215
 1248      H      22.2763626004    18.8902521756    11.4937795215
 1249      H      24.5593626004    17.3062521756     8.0807795215
 1250      H      39.9363626004     0.1232521756    10.5067795215
 1251      H      40.4583626004    16.4812521756    11.0007795215
 1252      H      22.0613626004    17.6612521756     1.5517795215
 1253      H      38.7073626004    10.9562521756     1.5577795215
 1254      H      38.4153626004    10.6342521756     4.1897795215
 1255      H      38.6383626004     6.1982521756     1.3407795215
 1256      H      38.2483626004     6.3472521756     3.9767795215
 1257      H      38.5333626004     2.9152521756     1.2867795215
 1258      H      38.2073626004     2.5422521756     3.9257795215
 1259      H      32.0893626004    17.1152521756     5.8587795215
 1260      H      37.0653626004    18.2772521756    10.1467795215
 1261      H      32.3843626004    18.6152521756     9.5227795215
 1262      H      34.7233626004    16.8272521756    12.7777795215
 1263      H      40.2373626004     8.3742521756    10.7627795215
 1264      H      40.3403626004    11.9862521756    10.8917795215
 1265      H       8.4923626004     2.5562521756    21.2947795215
 1266      H       3.7463626004     2.8902521756    21.7267795215
 1267      H       3.7353626004     0.2932521756    21.1977795215
 1268      H       1.8583626004    18.0102521756    14.9507795215
 1269      H       0.4073626004    11.3532521756    16.4637795215
 1270      H       0.3093626004     7.7432521756    16.3307795215
 1271      H      16.5383626004     8.7032521756    21.4847795215
 1272      H      11.9993626004     8.4902521756    21.5467795215
 1273      H      16.5163626004    12.8022521756    21.4017795215
 1274      H      12.1663626004    13.3102521756    21.6947795215
 1275      H       0.2083626004     3.1762521756    16.1257795215
 1276      H      16.2973626004     0.6482521756    21.2517795215
 1277      H      11.6603626004     1.3462521756    21.2817795215
 1278      H       8.6753626004     7.5272521756    21.4567795215
 1279      H       8.3813626004    10.1602521756    21.3347795215
 1280      H       8.1993626004    12.8212521756    21.3317795215
 1281      H       3.9253626004     7.5362521756    21.8347795215
 1282      H       4.0783626004    10.1662521756    21.4917795215
 1283      H       4.1893626004    12.8252521756    21.3377795215
 1284      H       1.4653626004    -2.8437478244    11.8997795215
 1285      H       1.8663626004    -2.5077478244     9.3037795215
 1286      H      11.1133626004    -7.1217478244     5.1677795215
 1287      H      15.8763626004    -7.0047478244     4.7377795215
 1288      H      11.5143626004    -6.3347478244     7.6777795215
 1289      H      11.8253626004    -6.7427478244    10.2797795215
 1290      H      15.8983626004    -8.8377478244     9.1327795215
 1291      H      17.6083626004    -7.3627478244    12.1777795215
 1292      H      13.6633626004    -7.3217478244    12.1037795215
 1293      H       0.0313626004    -0.0317478244     2.6517795215
 1294      H       5.7153626004    -6.6617478244    12.0977795215
 1295      H       1.3773626004    -6.0837478244    11.8407795215
 1296      H      19.4863626004    -7.3097478244    10.2737795215
 1297      H       1.0243626004    -6.6067478244     0.8517795215
 1298      H       5.7723626004    -6.6707478244     1.2417795215
 1299      H       8.0273626004    -0.0397478244    21.0427795215
 1300      H       7.6443626004    -2.6697478244    20.9117795215
 1301      H       3.6463626004    -2.3577478244    20.9307795215
 1302      H      11.0543626004    -7.4897478244    18.6347795215
 1303      H      15.8173626004    -7.3727478244    18.2057795215
 1304      H      15.8063626004    -7.2107478244    20.8527795215
 1305      H      11.4553626004    -6.7027478244    21.1457795215
 1306      H      -0.0276373996    -0.3997478244    16.1197795215
 1307      H      15.9293626004    -3.0597478244    20.9337795215
 1308      H      11.4783626004    -3.4267478244    21.2057795215
 1309      H       0.9653626004    -6.9737478244    14.3197795215
 1310      H       5.7133626004    -7.0377478244    14.7097795215
 1311      H       1.5243626004    -2.4767478244    -1.5682204785
 1312      H       8.1443626004     0.6952521756    -5.8922204785
 1313      H       7.7623626004    -1.9347478244    -6.0242204785
 1314      H      15.9243626004    -6.4757478244    -6.0832204785
 1315      H      11.8843626004    -6.3757478244    -3.1882204785
 1316      H      15.9573626004    -8.4707478244    -4.3352204785
 1317      H      17.6673626004    -6.9947478244    -1.2902204785
 1318      H      13.7213626004    -6.9537478244    -1.3642204785
 1319      H      16.0463626004    -2.3247478244    -6.0012204785
 1320      H      11.5963626004    -2.6917478244    -5.7302204785
 1321      H       5.7743626004    -6.2947478244    -1.3702204785
 1322      H       1.4363626004    -5.7157478244    -1.6272204785
 1323      H      19.5453626004    -6.9427478244    -3.1942204785
 1324      H      39.7483626004    -3.5317478244    10.4517795215
 1325      H      31.2573626004    -7.8387478244     5.2357795215
 1326      H      36.0203626004    -7.7217478244     4.8067795215
 1327      H      31.6583626004    -7.0517478244     7.7457795215
 1328      H      31.9693626004    -7.4597478244    10.3477795215
 1329      H      36.0423626004    -9.5547478244     9.2017795215
 1330      H      37.7523626004    -8.0797478244    12.2467795215
 1331      H      33.8073626004    -8.0387478244    12.1717795215
 1332      H      38.2833626004    -1.9077478244     1.1207795215
 1333      H      37.9243626004    -1.6827478244     3.7387795215
 1334      H      25.8593626004    -7.3787478244    12.1667795215
 1335      H      21.5213626004    -6.8007478244    11.9087795215
 1336      H      39.6303626004    -8.0267478244    10.3417795215
 1337      H      21.1683626004    -7.3227478244     0.9197795215
 1338      H      25.9163626004    -7.3877478244     1.3107795215
 1339      H      28.6363626004     1.8402521756    21.3637795215
 1340      H      23.8903626004     2.1732521756    21.7947795215
 1341      H      23.8793626004    -0.4237478244    21.2657795215
 1342      H      22.0023626004    17.2932521756    15.0197795215
 1343      H      38.6493626004    10.5882521756    15.0257795215
 1344      H      38.3563626004    10.2672521756    17.6577795215
 1345      H      38.5793626004     5.8312521756    14.8087795215
 1346      H      38.1893626004     5.9792521756    17.4447795215
 1347      H      36.6833626004     7.9862521756    21.5537795215
 1348      H      32.1433626004     7.7732521756    21.6157795215
 1349      H      36.6613626004    12.0852521756    21.4697795215
 1350      H      32.3103626004    12.5932521756    21.7627795215
 1351      H      38.4743626004     2.5482521756    14.7547795215
 1352      H      38.1483626004     2.1742521756    17.3937795215
 1353      H      32.0303626004    16.7482521756    19.3257795215
 1354      H      36.4413626004    -0.0687478244    21.3207795215
 1355      H      31.8043626004     0.6292521756    21.3507795215
 1356      H      36.7833626004    16.2362521756    21.5517795215
 1357      H      32.3323626004    15.8692521756    21.8237795215
 1358      H      28.8193626004     6.8102521756    21.5247795215
 1359      H      28.5253626004     9.4432521756    21.4037795215
 1360      H      28.3433626004    12.1042521756    21.3997795215
 1361      H      24.0693626004     6.8192521756    21.9037795215
 1362      H      24.2233626004     9.4492521756    21.5597795215
 1363      H      24.3333626004    12.1082521756    21.4067795215
 1364      H      27.0493626004    19.0642521756    -2.3792204785
 1365      H      22.3353626004    19.2572521756    -1.9742204785
 1366      H      28.7543626004     2.5742521756    -5.5722204785
 1367      H      28.6173626004    17.3612521756    -5.4062204785
 1368      H      24.0083626004     2.9082521756    -5.1402204785
 1369      H      23.9973626004     0.3112521756    -5.6702204785
 1370      H      24.6183626004    17.6732521756    -5.3872204785
 1371      H      39.9943626004     0.4902521756    -2.9612204785
 1372      H      40.5173626004    16.8492521756    -2.4672204785
 1373      H      36.8003626004     8.7212521756    -5.3822204785
 1374      H      32.2613626004     8.5082521756    -5.3202204785
 1375      H      36.7783626004    12.8202521756    -5.4652204785
 1376      H      32.4283626004    13.3282521756    -5.1722204785
 1377      H      36.5593626004     0.6662521756    -5.6152204785
 1378      H      31.9223626004     1.3642521756    -5.5852204785
 1379      H      36.9013626004    16.9712521756    -5.3842204785
 1380      H      32.4503626004    16.6042521756    -5.1122204785
 1381      H      37.1233626004    18.6442521756    -3.3212204785
 1382      H      32.4433626004    18.9832521756    -3.9452204785
 1383      H      34.7813626004    17.1952521756    -0.6902204785
 1384      H      28.9373626004     7.5452521756    -5.4112204785
 1385      H      28.6423626004    10.1782521756    -5.5322204785
 1386      H      28.4613626004    12.8392521756    -5.5352204785
 1387      H      24.1873626004     7.5542521756    -5.0322204785
 1388      H      24.3403626004    10.1842521756    -5.3762204785
 1389      H      24.4513626004    12.8432521756    -5.5292204785
 1390      H      40.2963626004     8.7422521756    -2.7052204785
 1391      H      40.3993626004    12.3532521756    -2.5762204785
 1392      H      28.1713626004    -0.7567478244    21.1117795215
 1393      H      27.7883626004    -3.3867478244    20.9797795215
 1394      H      23.7903626004    -3.0747478244    20.9987795215
 1395      H      31.1983626004    -8.2067478244    18.7037795215
 1396      H      35.9613626004    -8.0897478244    18.2747795215
 1397      H      35.9503626004    -7.9277478244    20.9207795215
 1398      H      31.6003626004    -7.4197478244    21.2137795215
 1399      H      38.2243626004    -2.2757478244    14.5887795215
 1400      H      37.8653626004    -2.0507478244    17.2057795215
 1401      H      36.0733626004    -3.7767478244    21.0027795215
 1402      H      31.6223626004    -4.1437478244    21.2747795215
 1403      H      21.1093626004    -7.6907478244    14.3877795215
 1404      H      25.8573626004    -7.7547478244    14.7777795215
 1405      H      28.2883626004    -0.0217478244    -5.8242204785
 1406      H      27.9063626004    -2.6517478244    -5.9552204785
 1407      H      23.9083626004    -2.3397478244    -5.9362204785
 1408      H      39.8073626004    -3.1637478244    -3.0162204785
 1409      H      36.0683626004    -7.1927478244    -6.0152204785
 1410      H      32.0283626004    -7.0927478244    -3.1192204785
 1411      H      36.1013626004    -9.1877478244    -4.2662204785
 1412      H      37.8113626004    -7.7117478244    -1.2212204785
 1413      H      33.8663626004    -7.6707478244    -1.2952204785
 1414      H      36.1903626004    -3.0417478244    -5.9332204785
 1415      H      31.7403626004    -3.4087478244    -5.6612204785
 1416      H      25.9183626004    -7.0117478244    -1.3012204785
 1417      H      21.5803626004    -6.4327478244    -1.5582204785
 1418      H      39.6893626004    -7.6597478244    -3.1252204785
 1419      H      12.6343626004    14.7832521756    19.7607795215
 1420      H      15.9103626004    14.7332521756    19.9417795215
 1421      H       6.4523626004    17.5612521756    15.2497795215
 1422      H      26.5963626004    16.8442521756    15.3187795215
 1423      H      18.4523626004    17.1912521756    12.6017795215
 1424      H      38.6553626004    16.8422521756    -0.7982204785
 1425      H      38.5963626004    16.4752521756    12.6697795215
 1426      H      36.6373626004    16.4302521756    19.0777795215
 1427      H      28.6773626004    -4.7717478244    -4.9752204785
 1428      H      23.6663626004    -4.5847478244    -4.9772204785
 1429      H       5.0673626004     9.9082521756    -3.0092204785
 1430      H       4.7663626004     1.7692521756    -3.2252204785
 1431      H       4.6573626004    -2.1307478244    -3.3932204785
 1432      H      16.5523626004    17.5152521756     5.5407795215
 1433      H      26.6553626004    17.2122521756     1.8507795215
 1434      H       6.5113626004    17.9292521756     1.7817795215
 1435      H       8.5023626004    17.6482521756     8.1717795215
 1436      H      18.5113626004    17.5592521756    -0.8662204785
 1437      H      28.6463626004    16.9312521756     8.2397795215
 1438      H       8.5333626004    -4.0547478244    -5.0442204785
 1439      H       3.4633626004    -4.2357478244     8.4217795215
 1440      H       8.4743626004    -4.4217478244     8.4237795215
 1441      H      23.6073626004    -4.9517478244     8.4897795215
 1442      H      28.6183626004    -5.1387478244     8.4917795215
 1443      H      36.6963626004    16.7982521756     5.6097795215
 ----------------------------------------------------------------
 Nuclear Repulsion Energy =     2633073.89624184 hartrees
 There are      295 alpha and      295 beta electrons
 Total job time:  94625.22s(wall), 3971516.93s(cpu) 
 Sat Jun 26 12:43:42 2021

        *************************************************************
        *                                                           *
        *  Thank you very much for using Q-Chem.  Have a nice day.  *
        *                                                           *
        *************************************************************


