Q-Chem Developer Version!
                  Welcome to Q-Chem
     A Quantum Leap Into The Future Of Chemistry


 Q-Chem 5.1, Q-Chem, Inc., Pleasanton, CA (2018)

 Yihan Shao,  Zhengting Gan,  E. Epifanovsky,  A. T. B. Gilbert,  M. Wormit,  
 J. Kussmann,  A. W. Lange,  A. Behn,  Jia Deng,  Xintian Feng,  D. Ghosh,  
 M. Goldey,  P. R. Horn,  L. D. Jacobson,  I. Kaliman,  T. Kus,  A. Landau,  
 Jie Liu,  E. I. Proynov,  R. M. Richard,  R. P. Steele,  E. J. Sundstrom,  
 H. L. Woodcock III,  P. M. Zimmerman,  D. Zuev,  B. Albrecht,  E. Alguire,  
 S. A. Baeppler,  D. Barton,  Z. Benda,  Y. A. Bernard,  E. J. Berquist,  
 K. B. Bravaya,  H. Burton,  D. Casanova,  Chun-Min Chang,  Yunqing Chen,  
 A. Chien,  K. D. Closser,  M. P. Coons,  S. Coriani,  S. Dasgupta,  
 A. L. Dempwolff,  M. Diedenhofen,  Hainam Do,  R. G. Edgar,  Po-Tung Fang,  
 S. Faraji,  S. Fatehi,  Qingguo Feng,  K. D. Fenk,  J. Fosso-Tande,  
 Qinghui Ge,  A. Ghysels,  G. Gidofalvi,  J. Gomes,  J. Gonthier,  A. Gunina,  
 D. Hait,  M. W. D. Hanson-Heine,  P. H. P. Harbach,  A. W. Hauser,  
 J. E. Herr,  E. G. Hohenstein,  Z. C. Holden,  Kerwin Hui,  B. C. Huynh,  
 T.-C. Jagau,  Hyunjun Ji,  B. Kaduk,  K. Khistyaev,  Jaehoon Kim,  
 P. Klunzinger,  K. Koh,  D. Kosenkov,  L. Koulias,  T. Kowalczyk,  
 C. M. Krauter,  A. Kunitsa,  Ka Un Lao,  A. Laurent,  K. V. Lawler,  
 Joonho Lee,  D. Lefrancois,  S. Lehtola,  D. S. Levine,  Yi-Pei Li,  
 You-Sheng Lin,  Fenglai Liu,  E. Livshits,  A. Luenser,  P. Manohar,  
 E. Mansoor,  S. F. Manzer,  Shan-Ping Mao,  Yuezhi Mao,  N. Mardirossian,  
 A. V. Marenich,  T. Markovich,  L. A. Martinez-Martinez,  S. A. Maurer,  
 N. J. Mayhall,  S. C. McKenzie,  J.-M. Mewes,  A. F. Morrison,  
 J. W. Mullinax,  K. Nanda,  T. S. Nguyen-Beck,  R. Olivares-Amaya,  
 J. A. Parkhill,  T. M. Perrine,  F. Plasser,  P. Pokhilko,  S. Prager,  
 A. Prociuk,  E. Ramos,  D. R. Rehn,  F. Rob,  M. Schneider,  N. Sergueev,  
 S. M. Sharada,  S. Sharma,  D. W. Small,  T. Stauch,  T. Stein,  
 Yu-Chuan Su,  A. J. W. Thom,  A. Tkatchenko,  T. Tsuchimochi,  N. M. Tubman,  
 L. Vogt,  M. L. Vidal,  O. Vydrov,  M. A. Watson,  J. Wenzel,  
 M. de Wergifosse,  T. A. Wesolowski,  A. White,  J. Witte,  A. Yamada,  
 Jun Yang,  K. Yao,  S. Yeganeh,  S. R. Yost,  Zhi-Qiang You,  A. Zech,  
 Igor Ying Zhang,  Xing Zhang,  Yan Zhao,  Ying Zhu,  B. R. Brooks,  
 G. K. L. Chan,  C. J. Cramer,  M. S. Gordon,  W. J. Hehre,  A. Klamt,  
 M. W. Schmidt,  C. D. Sherrill,  D. G. Truhlar,  A. Aspuru-Guzik,  R. Baer,  
 A. T. Bell,  N. A. Besley,  Jeng-Da Chai,  A. E. DePrince, III,  
 R. A. DiStasio Jr.,  A. Dreuw,  B. D. Dunietz,  T. R. Furlani,  
 Chao-Ping Hsu,  Yousung Jung,  Jing Kong,  D. S. Lambrecht,  WanZhen Liang,  
 C. Ochsenfeld,  V. A. Rassolov,  L. V. Slipchenko,  J. E. Subotnik,  
 T. Van Voorhis,  J. M. Herbert,  A. I. Krylov,  P. M. W. Gill,  M. Head-Gordon

 Contributors to earlier versions of Q-Chem not listed above: 
 R. D. Adamson,  B. Austin,  J. Baker,  G. J. O. Beran,  K. Brandhorst,  
 S. T. Brown,  E. F. C. Byrd,  A. K. Chakraborty,  C.-L. Cheng,  
 Siu Hung Chien,  D. M. Chipman,  D. L. Crittenden,  H. Dachsel,  
 R. J. Doerksen,  A. D. Dutoi,  L. Fusti-Molnar,  W. A. Goddard III,  
 A. Golubeva-Zadorozhnaya,  S. R. Gwaltney,  G. Hawkins,  A. Heyden,  
 S. Hirata,  G. Kedziora,  F. J. Keil,  C. Kelley,  Jihan Kim,  R. A. King,  
 R. Z. Khaliullin,  P. P. Korambath,  W. Kurlancheek,  A. M. Lee,  M. S. Lee,  
 S. V. Levchenko,  Ching Yeh Lin,  D. Liotard,  R. C. Lochan,  I. Lotan,  
 P. E. Maslen,  N. Nair,  D. P. O'Neill,  D. Neuhauser,  E. Neuscamman,  
 C. M. Oana,  R. Olson,  B. Peters,  R. Peverati,  P. A. Pieniazek,  
 Y. M. Rhee,  J. Ritchie,  M. A. Rohrdanz,  E. Rosta,  N. J. Russ,  
 H. F. Schaefer III,  N. E. Schultz,  N. Shenvi,  A. C. Simmonett,  A. Sodt,  
 D. Stuck,  K. S. Thanthiriwatte,  V. Vanovschi,  Tao Wang,  A. Warshel,  
 C. F. Williams,  Q. Wu,  X. Xu,  W. Zhang

 Please cite Q-Chem as follows:
 Y. Shao et al., Mol. Phys. 113, 184-215 (2015)
 DOI: 10.1080/00268976.2014.952696

 Q-Chem 5.1.1 for Intel X86 EM64T Linux

 Parts of Q-Chem use Armadillo 8.300.2 (Tropical Shenanigans).
 http://arma.sourceforge.net/

 Q-Chem begins on Wed Jun 30 12:56:02 2021  

Host: n0031.mhg0
0

     Scratch files written to /global/scratch/lbettins/qchem42941//
Input Ideriv = 2
Curr. Ideriv = -1
Max.  Ideriv = 2

Checking the input file for inconsistencies... 	...done.

--------------------------------------------------------------
User input:
--------------------------------------------------------------
$rem
   JOBTYPE  freq
   EXCHANGE   wb97x-d
   BASIS   def2-svp
   UNRESTRICTED   False
   max_scf_cycles   250
   geom_opt_max_cycles   1
   SYM_IGNORE  TRUE
   print_input   true
   geom_opt_dmax   80
   pop_mulliken false
   XC_GRID 000075000302
$end

$molecule
0 1
H       0.6920823760     1.9501330950     -5.3635818069
C       0.1274116191     2.7192934306     -5.9190203634
H       -0.9575425095     2.5286062716     -5.8370220255
C       0.4590169431     4.0994912977     -5.3667452292
H       0.4036751540     2.6325505876     -6.9797067978
H       -0.0552119787     4.8898323935     -5.9319656716
H       1.5387854032     4.2883776691     -5.4345168737
H       0.1713969463     4.1928912441     -4.3094617339
$end
--------------------------------------------------------------
 ----------------------------------------------------------------
             Standard Nuclear Orientation (Angstroms)
    I     Atom           X                Y                Z
 ----------------------------------------------------------------
    1      H       0.6920823760     1.9501330950    -5.3635818069
    2      C       0.1274116191     2.7192934306    -5.9190203634
    3      H      -0.9575425095     2.5286062716    -5.8370220255
    4      C       0.4590169431     4.0994912977    -5.3667452292
    5      H       0.4036751540     2.6325505876    -6.9797067978
    6      H      -0.0552119787     4.8898323935    -5.9319656716
    7      H       1.5387854032     4.2883776691    -5.4345168737
    8      H       0.1713969463     4.1928912441    -4.3094617339
 ----------------------------------------------------------------
 Nuclear Repulsion Energy =    42.1311970720 hartrees
 There are        9 alpha and        9 beta electrons
 Requested basis set is def2-SVP
 There are 30 shells and 58 basis functions

 Total QAlloc Memory Limit   2000 MB
 Mega-Array Size       188 MB
 MEM_STATIC part       192 MB

                       Distance Matrix (Angstroms)
             H (  1)   C (  2)   H (  3)   C (  4)   H (  5)   H (  6)
   C (  2)  1.104071
   H (  3)  1.811088  1.104632
   C (  4)  2.161960  1.523127  2.166906
   H (  5)  1.777845  1.099501  1.780294  2.180968
   H (  6)  3.085991  2.178247  2.529546  1.099338  2.530545
   H (  7)  2.487836  2.165351  3.080659  1.098258  2.533348  1.774833
   H (  8)  2.532241  2.182683  2.525429  1.099680  3.101423  1.780336
             H (  7)
   H (  8)  1.773307
 
 A cutoff of  1.0D-11 yielded    465 shell pairs
 There are      1761 function pairs (      1890 Cartesian)
 
 -------------------------------------------------------
 OpenMP Integral Computing Module                       
 Release: version 1.0, May 2013, Q-Chem Inc. Pittsburgh 
 -------------------------------------------------------
 Integral Job Info:
 Integral job number is                      11
 Integral operator is                         1
 short-range coefficients              22203600
 long-range coefficients              100000000
 Omega coefficients                         200
 if combine SR and LR in K                    1
 Integral screening is                        0
 Integral computing path is                   2
 max size of driver memory is            800000
 size of driver memory is                593474
 size of scratch memory is              1848772
 max col of scratch BK array               1296
 max len of scratch array in speh3          155
 max len of scratch index in speh4           18
 max int batch size is                      520
 min int batch size is                       52
 fixed nKL is                                52
 max L of basis functions is                  2
 order of int derivative is                   0
 number of shells is                         30
 number of basis is                          60
 number of cartesian basis is                60
 number of contracted shell pairs           465
 number of primitive shell pairs           1358
 maxK2 (contraction) of shell pair           25
 max number of K2 of shell pair               1
 max number of CS2 of shell pair             80
 max number of PS2 of shell pair            186
 mem total for path MDJ                  509658
 -------------------------------------------------------
 Smallest overlap matrix eigenvalue = 4.39E-03
 Guess from superposition of atomic densities
 Warning:  Energy on first SCF cycle will be non-variational
 SAD guess density has 18.000000 electrons

 -----------------------------------------------------------------------
  General SCF calculation program by
  Eric Jon Sundstrom, Paul Horn, Yuezhi Mao, Dmitri Zuev, Alec White,
  David Stuck, Shaama M.S., Shane Yost, Joonho Lee, David Small,
  Daniel Levine, Susi Lehtola, Hugh Burton, Evgeny Epifanovsky
 -----------------------------------------------------------------------
 Exchange:     0.2220 Hartree-Fock + 1.0000 wB97X-D + LR-HF
 Correlation:  1.0000 wB97X-D
 Using Euler-Maclaurin-Lebedev (75,302) quadrature formula
 Dispersion:   Grimme D
 using 32 threads for integral computing
 -------------------------------------------------------
 OpenMP Integral computing Module                
 Release: version 1.0, May 2013, Q-Chem Inc. Pittsburgh 
 -------------------------------------------------------
 using 32 threads for integral computing
 -------------------------------------------------------
 OpenMP Integral computing Module                
 Release: version 1.0, May 2013, Q-Chem Inc. Pittsburgh 
 -------------------------------------------------------
 -------------------------------------------------------
 OpenMP BLAS3 based DFT computing Module                
 Release: version 1.0, May 2013, Q-Chem Inc. Pittsburgh 
 -------------------------------------------------------
 A restricted SCF calculation will be
 performed using DIIS
 SCF converges when DIIS error is below 1.0e-08
 ---------------------------------------
  Cycle       Energy         DIIS error
 ---------------------------------------
    1     -79.9740552845      8.23e-02  
    2     -79.7138316407      8.26e-03  
    3     -79.7289260274      6.14e-03  
    4     -79.7453090686      2.32e-04  
    5     -79.7453447986      4.75e-05  
    6     -79.7453461034      6.64e-06  
    7     -79.7453461418      1.68e-06  
    8     -79.7453461431      6.40e-07  
    9     -79.7453461433      4.44e-08  
   10     -79.7453461433      8.20e-09  Convergence criterion met
 ---------------------------------------
 SCF time:   CPU 86.86s  wall 3.00s 
 SCF   energy in the final basis set =      -79.7453461433
 Total energy in the final basis set =      -79.7453461433
 
 --------------------------------------------------------------
 
                    Orbital Energies (a.u.)
 --------------------------------------------------------------
 
 Alpha MOs
 -- Occupied --
-10.287 -10.286  -0.843  -0.698  -0.521  -0.518  -0.449  -0.422
 -0.420
 -- Virtual --
  0.147   0.196   0.207   0.207   0.240   0.240   0.315   0.501
  0.507   0.514   0.605   0.609   0.711   0.733   0.770   0.772
  0.777   0.788   0.789   0.855   1.053   1.183   1.192   1.452
  1.454   1.621   1.630   1.825   1.856   1.866   1.870   1.873
  1.914   1.923   1.940   2.128   2.135   2.310   2.449   2.453
  2.513   2.640   2.653   2.735   2.931   3.016   3.026   3.098
  3.105
 --------------------------------------------------------------
 
 -----------------------------------------------------------------
                    Cartesian Multipole Moments
 -----------------------------------------------------------------
    Charge (ESU x 10^10)
                 0.0000
    Dipole Moment (Debye)
         X       0.0127      Y       0.0079      Z      -0.0063
       Tot       0.0162
    Quadrupole Moments (Debye-Ang)
        XX     -14.7030     XY      -0.1543     YY     -15.2923
        XZ      -0.1042     YZ      -0.2693     ZZ     -14.7023
    Octopole Moments (Debye-Ang^2)
       XXX     -13.0411    XXY     -50.3219    XYY      -5.6457
       YYY    -156.5884    XXZ      82.9542    XYZ       0.6812
       YYZ      84.8047    XZZ      -3.5871    YZZ     -47.5776
       ZZZ     249.4780
    Hexadecapole Moments (Debye-Ang^3)
      XXXX     -38.4877   XXXY     -49.3529   XXYY    -191.8863
      XYYY     -59.1081   YYYY   -1147.7870   XXXZ      71.3048
      XXYZ     280.3451   XYYZ      30.5299   YYYZ     864.6149
      XXZZ    -481.4895   XYZZ     -20.1218   YYZZ    -661.3447
      XZZZ      65.2403   YZZZ     820.6191   ZZZZ   -2853.2146
 -----------------------------------------------------------------
 Calculating MO derivatives via CPSCF
 D1JvT checksum  = 68640 3455.4287562864
 D1KAT checksum  = 130944 493.3539722877
 D1JvT checksum  = 68640 1810.6964702803
 D1KAT checksum  = 130944 204.5442372280
   1         3          24      0.184045    0.029246
   2         3          24      0.020513    0.003443
   3         3          24      0.001936    0.000303
   4         3          24      0.000151    0.000024
   5        24           3      0.000003    0.000001
   6        27           0      0.000000    0.000000    Roots Converged
 Time for AOints: 8.0 s (CPU) 0.3 s (wall)
 ------------------------------------------------------------------------------
                     AOints        : Timing summary (seconds)
 ------------------------------------------------------------------------------
     job step          cpu (% of tot)      sys (% of tot)     wall (% of tot)
 ------------------------------------------------------------------------------
  cpscf_lag         0.1166E+03 (35.0)   0.1242E-02 (39.1)   0.4003E+01 (30.9)
  iterzp            0.2075E+03 (62.2)   0.1823E-02 (57.3)   0.8661E+01 (66.8)
  make_fx           0.0000E+00 ( 0.0)   0.0000E+00 ( 0.0)   0.0000E+00 ( 0.0)
  AOints            0.8042E+01 ( 2.4)   0.1010E-03 ( 3.2)   0.2624E+00 ( 2.0)
 ------------------------------------------------------------------------------
   Grand Totals     0.3333E+03          0.3179E-02          0.1296E+02
 ------------------------------------------------------------------------------
 Calculating analytic Hessian of the SCF energy
 Polarizability Matrix (a.u.)
            1           2           3
    1 -23.4113795  -0.2678889  -0.2420492
    2  -0.2678889 -24.7833895  -0.7582379
    3  -0.2420492  -0.7582379 -23.4980065
atom: 0 element: 1
atom: 1 element: 6
atom: 2 element: 1
atom: 3 element: 6
atom: 4 element: 1
atom: 5 element: 1
atom: 6 element: 1
atom: 7 element: 1
 
 Direct stationary perturbation theory relativistic correction:
 
 rels  =       0.017489228264
 relv  =      -0.072320311122
 rel2e =       0.000000000000
 E_rel =      -0.054831082859
 
 Hessian of the SCF Energy
            1           2           3           4           5           6
    1   0.1219816  -0.1011717   0.0763206  -0.1209767   0.0956167  -0.0702667
    2  -0.1011717   0.1899738  -0.1003196   0.0940312  -0.1718072   0.0942799
    3   0.0763206  -0.1003196   0.1231388  -0.0700458   0.0955741  -0.1191912
    4  -0.1209767   0.0940312  -0.0700458   0.5788899  -0.0220865  -0.0053342
    5   0.0956167  -0.1718072   0.0955741  -0.0220865   0.4995424  -0.0249317
    6  -0.0702667   0.0942799  -0.1191912  -0.0053342  -0.0249317   0.5757002
    7  -0.0110132  -0.0040833   0.0027791  -0.3061007  -0.0418776   0.0213174
    8   0.0210911   0.0048025  -0.0040557  -0.0401408  -0.0542788   0.0048104
    9  -0.0156764  -0.0048065   0.0012758   0.0217848   0.0050645  -0.0509687
   10   0.0043075   0.0150874   0.0070250  -0.0868615  -0.0291501  -0.0116230
   11  -0.0068974  -0.0213880  -0.0103013  -0.0284971  -0.1990925  -0.0466559
   12   0.0048157   0.0158958   0.0069270  -0.0117036  -0.0465810  -0.0995390
   13   0.0042867  -0.0020080  -0.0161770  -0.0664163   0.0050318   0.0690005
   14  -0.0072122   0.0016689   0.0210232   0.0046369  -0.0472627  -0.0153021
   15   0.0046943  -0.0022006  -0.0130979   0.0684907  -0.0168127  -0.3053276
   16   0.0007205  -0.0019359  -0.0005842   0.0042380  -0.0068850   0.0052670
   17  -0.0020134  -0.0051962  -0.0028839   0.0146037  -0.0200702   0.0157364
   18  -0.0005889  -0.0031036  -0.0000312   0.0072696  -0.0105734   0.0073345
   19   0.0006947  -0.0002926   0.0001241  -0.0045973  -0.0001139   0.0004994
   20  -0.0000141   0.0009038   0.0007055  -0.0314653  -0.0054290   0.0024117
   21   0.0006136   0.0004734   0.0002943  -0.0129669  -0.0020730   0.0005026
   22  -0.0000011   0.0003728   0.0005582   0.0018247  -0.0005353  -0.0088604
   23   0.0006009   0.0010423   0.0002578   0.0089178  -0.0016019  -0.0303487
   24   0.0000876  -0.0002187   0.0006845   0.0025053   0.0003332  -0.0085107
            7           8           9          10          11          12
    1  -0.0110132   0.0210911  -0.0156764   0.0043075  -0.0068974   0.0048157
    2  -0.0040833   0.0048025  -0.0048065   0.0150874  -0.0213880   0.0158958
    3   0.0027791  -0.0040557   0.0012758   0.0070250  -0.0103013   0.0069270
    4  -0.3061007  -0.0401408   0.0217848  -0.0868615  -0.0284971  -0.0117036
    5  -0.0418776  -0.0542788   0.0050645  -0.0291501  -0.1990925  -0.0465810
    6   0.0213174   0.0048104  -0.0509687  -0.0116230  -0.0466559  -0.0995390
    7   0.3254545   0.0490469  -0.0228298  -0.0048365  -0.0004515   0.0005381
    8   0.0490469   0.0594785  -0.0015572  -0.0313754  -0.0055660   0.0028070
    9  -0.0228298  -0.0015572   0.0490662  -0.0128110  -0.0023798   0.0006795
   10  -0.0048365  -0.0313754  -0.0128110   0.5829662  -0.0194703  -0.0066825
   11  -0.0004515  -0.0055660  -0.0023798  -0.0194703   0.5126887  -0.0307662
   12   0.0005381   0.0028070   0.0006795  -0.0066825  -0.0307662   0.5772601
   13  -0.0058035   0.0021355   0.0300535   0.0016512  -0.0002927  -0.0085816
   14  -0.0009175  -0.0007609   0.0055544   0.0087071  -0.0014153  -0.0307887
   15  -0.0009211  -0.0000596  -0.0004665   0.0024298   0.0004813  -0.0084274
   16   0.0005558   0.0000741   0.0006235  -0.1106604   0.0932088  -0.0686218
   17  -0.0003166   0.0008433   0.0003926   0.0926222  -0.1843369   0.1026531
   18   0.0001053   0.0007293   0.0002359  -0.0688465   0.1037694  -0.1244804
   19   0.0013304  -0.0013302  -0.0005944  -0.3188029  -0.0433820   0.0187172
   20  -0.0013708  -0.0058067  -0.0027613  -0.0418774  -0.0528306   0.0037875
   21  -0.0005909  -0.0027380  -0.0000754   0.0192573   0.0039746  -0.0490873
   22   0.0004132   0.0004988  -0.0005502  -0.0677636   0.0057822   0.0715184
   23  -0.0000295   0.0012881   0.0004932   0.0054565  -0.0480594  -0.0170076
   24  -0.0003981   0.0000637   0.0002533   0.0712508  -0.0181221  -0.3033324
           13          14          15          16          17          18
    1   0.0042867  -0.0072122   0.0046943   0.0007205  -0.0020134  -0.0005889
    2  -0.0020080   0.0016689  -0.0022006  -0.0019359  -0.0051962  -0.0031036
    3  -0.0161770   0.0210232  -0.0130979  -0.0005842  -0.0028839  -0.0000312
    4  -0.0664163   0.0046369   0.0684907   0.0042380   0.0146037   0.0072696
    5   0.0050318  -0.0472627  -0.0168127  -0.0068850  -0.0200702  -0.0105734
    6   0.0690005  -0.0153021  -0.3053276   0.0052670   0.0157364   0.0073345
    7  -0.0058035  -0.0009175  -0.0009211   0.0005558  -0.0003166   0.0001053
    8   0.0021355  -0.0007609  -0.0000596   0.0000741   0.0008433   0.0007293
    9   0.0300535   0.0055544  -0.0004665   0.0006235   0.0003926   0.0002359
   10   0.0016512   0.0087071   0.0024298  -0.1106604   0.0926222  -0.0688465
   11  -0.0002927  -0.0014153   0.0004813   0.0932088  -0.1843369   0.1037694
   12  -0.0085816  -0.0307887  -0.0084274  -0.0686218   0.1026531  -0.1244804
   13   0.0653327  -0.0039912  -0.0735865   0.0000714   0.0003664   0.0005538
   14  -0.0039912   0.0512834   0.0210145   0.0006506   0.0011060   0.0003016
   15  -0.0735865   0.0210145   0.3255927   0.0000912  -0.0001992   0.0007693
   16   0.0000714   0.0006506   0.0000912   0.1129131  -0.0996226   0.0748876
   17   0.0003664   0.0011060  -0.0001992  -0.0996226   0.2013184  -0.1090776
   18   0.0005538   0.0003016   0.0007693   0.0748876  -0.1090776   0.1281775
   19   0.0003396  -0.0000627  -0.0004060  -0.0121013  -0.0034589   0.0021695
   20   0.0004755   0.0012001   0.0000271   0.0224217   0.0042656  -0.0031111
   21  -0.0005272   0.0005009   0.0001911  -0.0168054  -0.0040953   0.0010204
   22   0.0005382  -0.0018110  -0.0007924   0.0042629  -0.0021809  -0.0155505
   23  -0.0017174  -0.0058195  -0.0022508  -0.0079117   0.0020700   0.0210653
   24  -0.0007355  -0.0023038   0.0007663   0.0051421  -0.0025262  -0.0130260
           19          20          21          22          23          24
    1   0.0006947  -0.0000141   0.0006136  -0.0000011   0.0006009   0.0000876
    2  -0.0002926   0.0009038   0.0004734   0.0003728   0.0010423  -0.0002187
    3   0.0001241   0.0007055   0.0002943   0.0005582   0.0002578   0.0006845
    4  -0.0045973  -0.0314653  -0.0129669   0.0018247   0.0089178   0.0025053
    5  -0.0001139  -0.0054290  -0.0020730  -0.0005353  -0.0016019   0.0003332
    6   0.0004994   0.0024117   0.0005026  -0.0088604  -0.0303487  -0.0085107
    7   0.0013304  -0.0013708  -0.0005909   0.0004132  -0.0000295  -0.0003981
    8  -0.0013302  -0.0058067  -0.0027380   0.0004988   0.0012881   0.0000637
    9  -0.0005944  -0.0027613  -0.0000754  -0.0005502   0.0004932   0.0002533
   10  -0.3188029  -0.0418774   0.0192573  -0.0677636   0.0054565   0.0712508
   11  -0.0433820  -0.0528306   0.0039746   0.0057822  -0.0480594  -0.0181221
   12   0.0187172   0.0037875  -0.0490873   0.0715184  -0.0170076  -0.3033324
   13   0.0003396   0.0004755  -0.0005272   0.0005382  -0.0017174  -0.0007355
   14  -0.0000627   0.0012001   0.0005009  -0.0018110  -0.0058195  -0.0023038
   15  -0.0004060   0.0000271   0.0001911  -0.0007924  -0.0022508   0.0007663
   16  -0.0121013   0.0224217  -0.0168054   0.0042629  -0.0079117   0.0051421
   17  -0.0034589   0.0042656  -0.0040953  -0.0021809   0.0020700  -0.0025262
   18   0.0021695  -0.0031111   0.0010204  -0.0155505   0.0210653  -0.0130260
   19   0.3393214   0.0494669  -0.0194382  -0.0061846  -0.0008267  -0.0010716
   20   0.0494669   0.0585020  -0.0010946   0.0023634  -0.0008053   0.0000352
   21  -0.0194382  -0.0010946   0.0472429   0.0304576   0.0050521  -0.0000886
   22  -0.0061846   0.0023634   0.0304576   0.0669104  -0.0044900  -0.0767807
   23  -0.0008267  -0.0008053   0.0050521  -0.0044900   0.0518857   0.0227387
   24  -0.0010716   0.0000352  -0.0000886  -0.0767807   0.0227387   0.3232534
 Gradient time:  CPU 401.15 s  wall 17.56 s
 **********************************************************************
 **                                                                  **
 **                       VIBRATIONAL ANALYSIS                       **
 **                       --------------------                       **
 **                                                                  **
 **        VIBRATIONAL FREQUENCIES (CM**-1) AND NORMAL MODES         **
 **     FORCE CONSTANTS (mDYN/ANGSTROM) AND REDUCED MASSES (AMU)     **
 **                  INFRARED INTENSITIES (KM/MOL)                   **
 **                                                                  **
 **********************************************************************
 

 Mode:                 1                      2                      3
 Frequency:       344.70                 826.33                 842.20
 Force Cnst:      0.0706                 0.4253                 0.4419
 Red. Mass:       1.0079                 1.0573                 1.0573
 IR Active:          YES                    YES                    YES
 IR Intens:        0.005                  5.021                  4.775
 Raman Active:       YES                    YES                    YES
               X      Y      Z        X      Y      Z        X      Y      Z
 H          0.305  0.030 -0.264    0.052 -0.174 -0.257   -0.251 -0.351 -0.171
 C          0.001 -0.001 -0.000   -0.017 -0.012  0.041    0.040 -0.013  0.013
 H          0.058 -0.161  0.366   -0.010 -0.172 -0.280   -0.043  0.450  0.072
 C         -0.000  0.001 -0.000   -0.019 -0.013  0.043    0.045 -0.019  0.014
 H         -0.375  0.131 -0.109    0.171  0.505  0.044   -0.196  0.086 -0.057
 H          0.317  0.025 -0.255    0.055 -0.184 -0.267   -0.272 -0.362 -0.183
 H          0.051 -0.160  0.376   -0.009 -0.173 -0.283   -0.041  0.471  0.080
 H         -0.370  0.136 -0.113    0.172  0.501  0.045   -0.208  0.080 -0.064
 TransDip  -0.002  0.001 -0.000    0.027  0.018 -0.064   -0.063  0.023 -0.020

 Mode:                 4                      5                      6
 Frequency:      1034.12                1214.21                1221.65
 Force Cnst:      1.8335                 1.2752                 1.2939
 Red. Mass:       2.9100                 1.4681                 1.4714
 IR Active:          YES                    YES                    YES
 IR Intens:        0.003                  0.002                  0.009
 Raman Active:       YES                    YES                    YES
               X      Y      Z        X      Y      Z        X      Y      Z
 H          0.102  0.329  0.143    0.116 -0.183 -0.247   -0.221 -0.400 -0.101
 C          0.061  0.266  0.110   -0.058 -0.045  0.125    0.131 -0.048  0.044
 H          0.060  0.320  0.134   -0.068 -0.152 -0.304    0.033  0.459  0.028
 C         -0.062 -0.265 -0.111    0.058  0.042 -0.126   -0.129  0.047 -0.043
 H          0.093  0.351  0.120    0.139  0.471  0.130   -0.252  0.106 -0.069
 H         -0.092 -0.316 -0.140   -0.116  0.199  0.255    0.216  0.366  0.097
 H         -0.057 -0.338 -0.124    0.063  0.150  0.306   -0.041 -0.422 -0.030
 H         -0.096 -0.365 -0.120   -0.133 -0.446 -0.130    0.242 -0.105  0.072
 TransDip   0.000  0.001  0.001   -0.001 -0.001 -0.000    0.003  0.000 -0.001

 Mode:                 7                      8                      9
 Frequency:      1384.35                1423.78                1482.50
 Force Cnst:      1.3535                 1.5682                 1.3379
 Red. Mass:       1.1987                 1.3130                 1.0332
 IR Active:          YES                    YES                    YES
 IR Intens:        1.050                  0.018                  3.937
 Raman Active:       YES                    YES                    YES
               X      Y      Z        X      Y      Z        X      Y      Z
 H          0.183  0.280  0.245   -0.191 -0.266 -0.248    0.542  0.183 -0.260
 C         -0.020 -0.084 -0.034    0.025  0.107  0.042   -0.016 -0.010  0.042
 H         -0.075  0.368  0.169    0.089 -0.363 -0.162   -0.126  0.399 -0.482
 C         -0.021 -0.085 -0.032   -0.026 -0.106 -0.044   -0.007 -0.004  0.012
 H          0.133  0.367 -0.019   -0.131 -0.362  0.034   -0.160 -0.378  0.018
 H          0.183  0.261  0.244    0.185  0.252  0.253   -0.056 -0.059 -0.015
 H         -0.076  0.361  0.163   -0.088  0.358  0.173    0.004 -0.054  0.069
 H          0.146  0.379 -0.015    0.153  0.368 -0.031    0.072  0.076  0.031
 TransDip   0.008  0.030  0.011    0.003 -0.003 -0.000    0.024  0.017 -0.056

 Mode:                10                     11                     12
 Frequency:      1484.33                1485.94                1490.72
 Force Cnst:      1.3474                 1.3582                 1.3552
 Red. Mass:       1.0379                 1.0440                 1.0350
 IR Active:          YES                    YES                    YES
 IR Intens:        5.361                  6.341                  4.337
 Raman Active:       YES                    YES                    YES
               X      Y      Z        X      Y      Z        X      Y      Z
 H          0.005  0.028  0.001   -0.068 -0.002  0.028    0.128 -0.202 -0.453
 C         -0.022  0.005 -0.002    0.001  0.009 -0.026   -0.043  0.013 -0.009
 H         -0.012 -0.057  0.010    0.021 -0.035  0.115   -0.027  0.198  0.447
 C         -0.046  0.013  0.000    0.004  0.018 -0.047   -0.019  0.006 -0.002
 H          0.040  0.016  0.015    0.059 -0.008 -0.010    0.630 -0.233  0.185
 H          0.277 -0.149 -0.498   -0.501 -0.211  0.114    0.043  0.058  0.010
 H         -0.062  0.298  0.300    0.105 -0.349  0.586   -0.017 -0.032 -0.051
 H          0.554 -0.344  0.191    0.329  0.280  0.034   -0.025 -0.013 -0.003
 TransDip   0.072 -0.017  0.002   -0.006 -0.029  0.075    0.063 -0.020  0.011

 Mode:                13                     14                     15
 Frequency:      3026.34                3067.41                3118.86
 Force Cnst:      5.5996                 5.7490                 6.3364
 Red. Mass:       1.0377                 1.0370                 1.1056
 IR Active:          YES                    YES                    YES
 IR Intens:       27.760                 24.854                 13.818
 Raman Active:       YES                    YES                    YES
               X      Y      Z        X      Y      Z        X      Y      Z
 H         -0.325  0.435 -0.324    0.013 -0.020  0.013    0.350 -0.486  0.358
 C         -0.019 -0.049 -0.001    0.000  0.004  0.000   -0.084  0.030 -0.023
 H          0.652  0.109 -0.054   -0.017 -0.005  0.001    0.666  0.121 -0.058
 C          0.001  0.000 -0.001   -0.006 -0.047 -0.019    0.017 -0.006  0.006
 H         -0.104  0.020  0.382    0.002 -0.002 -0.011   -0.008  0.004 -0.031
 H         -0.008  0.009 -0.009   -0.286  0.425 -0.317   -0.063  0.095 -0.072
 H          0.012  0.000 -0.002    0.519  0.081 -0.037   -0.151 -0.024  0.012
 H         -0.010  0.000  0.032   -0.160  0.039  0.574    0.009 -0.003 -0.014
 TransDip  -0.051 -0.158 -0.033   -0.028 -0.146 -0.059   -0.108  0.043 -0.026

 Mode:                16                     17                     18
 Frequency:      3142.87                3165.10                3170.06
 Force Cnst:      6.4100                 6.5198                 6.5358
 Red. Mass:       1.1014                 1.1046                 1.1039
 IR Active:          YES                    YES                    YES
 IR Intens:        5.519                 40.644                 35.997
 Raman Active:       YES                    YES                    YES
               X      Y      Z        X      Y      Z        X      Y      Z
 H          0.130 -0.168  0.114    0.106 -0.146  0.100    0.024 -0.036  0.027
 C          0.026  0.012 -0.077    0.001  0.010 -0.037   -0.020  0.002  0.015
 H         -0.232 -0.039  0.007   -0.026 -0.004 -0.002    0.171  0.032 -0.011
 C         -0.010 -0.012  0.039   -0.022  0.035 -0.075   -0.087  0.009  0.023
 H         -0.209  0.059  0.796   -0.090  0.028  0.342    0.048 -0.015 -0.188
 H         -0.112  0.160 -0.113    0.323 -0.487  0.348    0.136 -0.223  0.168
 H          0.142  0.020 -0.003    0.104  0.023 -0.019    0.802  0.138 -0.050
 H          0.095 -0.027 -0.341   -0.163  0.051  0.564    0.095 -0.029 -0.388
 TransDip   0.023 -0.014 -0.070   -0.037  0.072 -0.188   -0.182  0.015  0.061

 STANDARD THERMODYNAMIC QUANTITIES AT   298.15 K  AND     1.00 ATM

   This Molecule has  0 Imaginary Frequencies
   Zero point vibrational energy:       47.069 kcal/mol

   Atom    1 Element H  Has Mass    1.00783
   Atom    2 Element C  Has Mass   12.00000
   Atom    3 Element H  Has Mass    1.00783
   Atom    4 Element C  Has Mass   12.00000
   Atom    5 Element H  Has Mass    1.00783
   Atom    6 Element H  Has Mass    1.00783
   Atom    7 Element H  Has Mass    1.00783
   Atom    8 Element H  Has Mass    1.00783
   Molecular Mass:    30.046980 amu
   Principal axes and moments of inertia in amu*Bohr^2:
                             1           2           3
    Eigenvalues --       22.88047    89.66782    89.92831
          X               0.21718     0.88562    -0.41050
          Y               0.90556    -0.33979    -0.25397
          Z               0.36441     0.31658     0.87578
   Rotational Symmetry Number is   1
   The Molecule is an Asymmetric Top
   Translational Enthalpy:        0.889 kcal/mol
   Rotational Enthalpy:           0.889 kcal/mol
   Vibrational Enthalpy:         47.449 kcal/mol
   gas constant (RT):             0.592 kcal/mol
   Translational Entropy:        36.134  cal/mol.K
   Rotational Entropy:           19.851  cal/mol.K
   Vibrational Entropy:           1.797  cal/mol.K

   Total Enthalpy:               49.819 kcal/mol
   Total Entropy:                57.781  cal/mol.K
Archival summary:
1\1\n0031.mhg0\FREQ\ProcedureUnspecified\BasisUnspecified\26\lbettins\WedJun3012:56:232021WedJun3012:56:232021\0\\#,FREQ,ProcedureUnspecified,BasisUnspecified,\\0,1\C\H,1,1.09826\H,1,1.09934,2,107.729\H,1,1.09968,2,107.57,3,-116.335,0\C,1,1.52313,2,110.336,3,121.678,0\H,5,1.0995,1,111.505,2,-61.192,0\H,5,1.10407,1,109.726,2,57.8822,0\H,5,1.10463,1,110.081,2,179.282,0\\\@

 Total job time:  21.24s(wall), 503.79s(cpu) 
 Wed Jun 30 12:56:23 2021

        *************************************************************
        *                                                           *
        *  Thank you very much for using Q-Chem.  Have a nice day.  *
        *                                                           *
        *************************************************************


