
Running Job 1 of 1 samp_933.qcin
qchem samp_933.qcin_9456.0 /scr/lance/184064/933/qchem9456/ 0
/home/mgcf/software-ws/qchem/qchem_540/exe/qcprog.exe_s samp_933.qcin_9456.0 /scr/lance/184064/933/qchem9456/
                  Welcome to Q-Chem
     A Quantum Leap Into The Future Of Chemistry


 Q-Chem 5.4, Q-Chem, Inc., Pleasanton, CA (2021)

 E. Epifanovsky,  A. T. B. Gilbert,  Xintian Feng,  Joonho Lee,  Yuezhi Mao,  
 N. Mardirossian,  P. Pokhilko,  A. White,  M. Wormit,  M. P. Coons,  
 A. L. Dempwolff,  Zhengting Gan,  D. Hait,  P. R. Horn,  L. D. Jacobson,  
 I. Kaliman,  J. Kussmann,  A. W. Lange,  Ka Un Lao,  D. S. Levine,  Jie Liu,  
 S. C. McKenzie,  A. F. Morrison,  K. Nanda,  F. Plasser,  D. R. Rehn,  
 M. L. Vidal,  Zhi-Qiang You,  Ying Zhu,  B. Alam,  B. Albrecht,  
 A. Aldossary,  E. Alguire,  J. H. Andersen,  D. Barton,  K. Begam,  A. Behn,  
 Y. A. Bernard,  E. J. Berquist,  H. Burton,  A. Carreras,  K. Carter-Fenk,  
 R. Chakraborty,  A. D. Chien,  K. D. Closser,  V. Cofer-Shabica,  
 S. Dasgupta,  Jia Deng,  M. de Wergifosse,  M. Diedenhofen,  Hainam Do,  
 S. Ehlert,  Po-Tung Fang,  S. Fatehi,  Qingguo Feng,  J. Gayvert,  
 Qinghui Ge,  G. Gidofalvi,  M. Goldey,  J. Gomes,  C. Gonzalez-Espinoza,  
 S. Gulania,  A. Gunina,  M. W. D. Hanson-Heine,  P. H. P. Harbach,  
 A. W. Hauser,  M. F. Herbst,  M. Hernandez Vera,  M. Hodecker,  
 Z. C. Holden,  S. Houck,  Xunkun Huang,  Kerwin Hui,  B. C. Huynh,  
 M. Ivanov,  Hyunjun Ji,  Hanjie Jiang,  B. Kaduk,  S. Kaehler,  
 K. Khistyaev,  Jaehoon Kim,  P. Klunzinger,  Z. Koczor-Benda,  
 Joong Hoon Koh,  D. Kosenkov,  L. Koulias,  T. Kowalczyk,  C. M. Krauter,  
 K. Kue,  A. Kunitsa,  T. Kus,  A. Landau,  K. V. Lawler,  D. Lefrancois,  
 S. Lehtola,  Rain Li,  Yi-Pei Li,  Jiashu Liang,  M. Liebenthal,  
 Hung-Hsuan Lin,  You-Sheng Lin,  Fenglai Liu,  Kuan-Yu Liu,  
 M. Loipersberger,  A. Luenser,  A. Manjanath,  P. Manohar,  E. Mansoor,  
 S. F. Manzer,  Shan-Ping Mao,  A. V. Marenich,  T. Markovich,  S. Mason,  
 S. A. Maurer,  P. F. McLaughlin,  M. F. S. J. Menger,  J.-M. Mewes,  
 S. A. Mewes,  P. Morgante,  J. W. Mullinax,  T. S. Nguyen-Beck,  
 K. J. Oosterbaan,  G. Paran,  Alexander C. Paul,  Suranjan K. Paul,  
 F. Pavosevic,  Zheng Pei,  S. Prager,  E. I. Proynov,  E. Ramos,  B. Rana,  
 A. E. Rask,  A. Rettig,  R. M. Richard,  F. Rob,  E. Rossomme,  T. Scheele,  
 M. Scheurer,  M. Schneider,  N. Sergueev,  S. M. Sharada,  W. Skomorowski,  
 D. W. Small,  C. J. Stein,  Yu-Chuan Su,  E. J. Sundstrom,  Zhen Tao,  
 J. Thirman,  T. Tsuchimochi,  N. M. Tubman,  S. P. Veccham,  O. Vydrov,  
 J. Wenzel,  J. Witte,  A. Yamada,  Kun Yao,  S. Yeganeh,  S. R. Yost,  
 A. Zech,  Igor Ying Zhang,  Xing Zhang,  Yu Zhang,  D. Zuev,  
 A. Aspuru-Guzik,  A. T. Bell,  N. A. Besley,  K. B. Bravaya,  B. R. Brooks,  
 D. Casanova,  Jeng-Da Chai,  S. Coriani,  C. J. Cramer,  
 A. E. DePrince, III,  R. A. DiStasio Jr.,  A. Dreuw,  B. D. Dunietz,  
 T. R. Furlani,  W. A. Goddard III,  S. Grimme,  S. Hammes-Schiffer,  
 T. Head-Gordon,  W. J. Hehre,  Chao-Ping Hsu,  T.-C. Jagau,  Yousung Jung,  
 A. Klamt,  Jing Kong,  D. S. Lambrecht,  WanZhen Liang,  N. J. Mayhall,  
 C. W. McCurdy,  J. B. Neaton,  C. Ochsenfeld,  J. A. Parkhill,  R. Peverati,  
 V. A. Rassolov,  Yihan Shao,  L. V. Slipchenko,  T. Stauch,  R. P. Steele,  
 J. E. Subotnik,  A. J. W. Thom,  A. Tkatchenko,  D. G. Truhlar,  
 T. Van Voorhis,  T. A. Wesolowski,  K. B. Whaley,  H. L. Woodcock III,  
 P. M. Zimmerman,  S. Faraji,  P. M. W. Gill,  M. Head-Gordon,  
 J. M. Herbert,  A. I. Krylov

 Contributors to earlier versions of Q-Chem not listed above: 
 R. D. Adamson,  B. Austin,  R. Baer,  J. Baker,  G. J. O. Beran,  
 K. Brandhorst,  S. T. Brown,  E. F. C. Byrd,  A. K. Chakraborty,  
 G. K. L. Chan,  Chun-Min Chang,  Yunqing Chen,  C.-L. Cheng,  
 Siu Hung Chien,  D. M. Chipman,  D. L. Crittenden,  H. Dachsel,  
 R. J. Doerksen,  A. D. Dutoi,  R. G. Edgar,  J. Fosso-Tande,  
 L. Fusti-Molnar,  D. Ghosh,  A. Ghysels,  A. Golubeva-Zadorozhnaya,  
 J. Gonthier,  M. S. Gordon,  S. R. Gwaltney,  G. Hawkins,  J. E. Herr,  
 A. Heyden,  S. Hirata,  E. G. Hohenstein,  G. Kedziora,  F. J. Keil,  
 C. Kelley,  Jihan Kim,  R. A. King,  R. Z. Khaliullin,  P. P. Korambath,  
 W. Kurlancheek,  A. Laurent,  A. M. Lee,  M. S. Lee,  S. V. Levchenko,  
 Ching Yeh Lin,  D. Liotard,  E. Livshits,  R. C. Lochan,  I. Lotan,  
 L. A. Martinez-Martinez,  P. E. Maslen,  N. Nair,  D. P. O'Neill,  
 D. Neuhauser,  E. Neuscamman,  C. M. Oana,  R. Olivares-Amaya,  R. Olson,  
 T. M. Perrine,  B. Peters,  P. A. Pieniazek,  A. Prociuk,  Y. M. Rhee,  
 J. Ritchie,  M. A. Rohrdanz,  E. Rosta,  N. J. Russ,  H. F. Schaefer III,  
 M. W. Schmidt,  N. E. Schultz,  S. Sharma,  N. Shenvi,  C. D. Sherrill,  
 A. C. Simmonett,  A. Sodt,  T. Stein,  D. Stuck,  K. S. Thanthiriwatte,  
 V. Vanovschi,  L. Vogt,  Tao Wang,  A. Warshel,  M. A. Watson,  
 C. F. Williams,  Q. Wu,  X. Xu,  Jun Yang,  W. Zhang,  Yan Zhao

 Please cite Q-Chem as follows:
 Y. Shao et al., Mol. Phys. 113, 184-215 (2015)
 DOI: 10.1080/00268976.2014.952696

 Q-Chem 5.4.0 for Intel X86 EM64T Linux

 Parts of Q-Chem use Armadillo 9.800.1 (Horizon Scraper).
 http://arma.sourceforge.net/

 Q-Chem begins on Thu Oct 21 16:06:50 2021  

 Host: 
0

     Scratch files written to /scr/lance/184064/933/qchem9456//
 May1621 |scratch|qcdevops|jenkins|workspace|build_RNUM -1
 Processing $rem in /home/mgcf/software-ws/qchem/qchem_540/config/preferences:
 Processing $rem in /home/lance/.qchemrc:
Applying user defined connections for MM calculations

 Checking the input file for inconsistencies... 	...done.

--------------------------------------------------------------
User input:
--------------------------------------------------------------
$rem
JOBTYPE  sp
EXCHANGE   wb97x-d
BASIS   def2-svp
UNRESTRICTED   False
geom_opt_coords   0
max_scf_cycles   1000
geom_opt_max_cycles   1
QM_MM_INTERFACE   Zeolite
force_field   charmm27
user_connect   TRUE
symmetry   off
sym_ignore   TRUE
print_input   true
qmmm_print   false
qm_mm   TRUE
thresh 10
scf_convergence 7
AIMD_FIXED_ATOMS 2131
geom_opt_dmax   80
pop_mulliken false
$end

$QM_ATOMS
1
2
3
4
5
6
7
8
9
10
11
12
13
14
15
16
17
18
19
20
21
22
23
24
25
26
27
28
29
30
31
32
33
34
35
36
37
38
39
40
41
42
43
44
45
46
47
48
49
50
51
52
53
54
55
56
57
58
59
60
61
62
$end

$force_field_params
NumAtomTypes   3000
AtomType   -1   -0.35   1.77   -0.018
AtomType   -13   -0.35   1.77   -0.018
AtomType   -2   0.7   2.2   -0.047
AtomType   -3   -0.175   0.01   0
AtomType   -4    0.175   0.01   0
AtomType   -23   0.525   2.2   -0.047
AtomType   -22   0.35   2.2   -0.047
AtomType   -21   0.175   2.2   -0.047
AtomType   -111   0   1.34   -0.024
AtomType   -112   0   1.34   -0.035
AtomType   -121   0   2.05   -0.078
AtomType   -122   0   2.01   -0.056
AtomType   -912   0   2.175   -0.055
AtomType   -916   0   1.77   -0.1521
AtomType   -901   0   1.32   -0.022
AtomType   -801   0   0.2245   -0.046
AtomType    -31 0   1.9924  -0.07
AtomType    -32 0   2.09    -0.068
AtomType    -33 0   2.08    -0.064
AtomType    -34 0   1.87    -0.18
AtomType    -35 0   2.00    -0.032
AtomType    -41 0   0.2245  -0.046
AtomType    -42 0   0.87    -0.012
AtomType    -43 0   1.1 -0.046
AtomType    -44 0   1.3582  -0.03
AtomType    -45 0   1.26    -0.026
AtomType    -46 0   1.25    -0.031
AtomType    -47 0   1.34    -0.045
AtomType    -51 0   1.765   -0.1921
AtomType    -61 0   1.98    -0.07
AtomType    -62 0   1.89    -0.06
AtomType    -63 0   1.79    -0.18
Bond   -1   -2   304   1.682
Bond   -1   -3   204   1.489
Bond   -2   -3   100   1.45
Angle   -1   -2   -1   34   150
Angle   -2   -1   -2   30   121.5
Angle   -3   -1   -2   44   118
Angle   -1   -2   -3   30   109.5
Torsion   -2   -1   -2   -1   0.1   120   3
Torsion   -2   -1   -2   -3   0.3   120   3
Bond   -121   -122   222.5   1.528
Bond   -121   -121   222.5   1.528
Bond   -122   -122   222.5   1.528
Bond   -111   -121   309   1.089
Bond   -112   -122   309   1.089
Angle   -121   -122   -122   58   115
Angle   -121   -121   -122   58   115
Angle   -121   -121   -121   58   115
Angle   -122   -122   -122   58   115
Angle   -111   -121   -111   35.5   108.4
Angle   -111   -121   -121   35.5   108.4
Angle   -111   -121   -122   35.5   108.4
Angle   -112   -122   -112   35.5   108.4
Angle   -112   -122   -121   35.5   108.4
Angle   -112   -122   -122   35.5   108.4
Torsion   -111   -121   -122   -122   0.16   120   3
Torsion   -111   -121   -121   -121   0.16   120   3
Torsion   -111   -121   -121   -111   0.16   120   3
Torsion   -111   -121   -122   -112   0.16   120   3
Torsion   -112   -122   -122   -122   95.16   180   2
Torsion   -112   -122   -122   -112   95.16   180   2
Torsion   -121   -122   -122   -122   95.16   180   2
Torsion   -121   -122   -122   -112   95.16   180   2
Torsion   -122   -122   -122   -112   95.16   180   2
Torsion   -112   -122   -122   -121   95.16   180   2
Bond   -13   -1   304   1.682
Bond   -13   -121   222.5   1.55
Angle   -13   -121   -121   40   111
Angle   -13   -121   -1   34   150
Angle   -13   -121   -111   35.5   115
Torsion   -1   -13   -121   -121   0.2   120   3
Torsion   -1   -13   -121   -111   0.2   120   3
Bond   -901   -912   342.991   1.093
Bond   -801   -916   560.905   0.972
Bond   -916   -912   363.214   1.418
Bond   -912   -912   306.432   1.508
Angle   -916   -912   -912   71.39   108.133
Angle   -916   -912   -916   83.192   111.368
Angle   -916   -912   -901   56.205   108.577
Angle   -912   -912   -901   45.77   110.549
Angle   -912   -916   -912   86.143   106.926
Angle   -912   -912   -912   61.243   109.608
Angle   -912   -916   -801   57.069   106.503
Angle   -901   -912   -901   37.134   108.836
Torsion   -912   -916   -912   -912   -0.341   0   1
Torsion   -912   -916   -912   -912   0.378   180   2
Torsion   -912   -916   -912   -912   0.378   0   3
Torsion   -912   -916   -912   -901   0.285   0   1
Torsion   -912   -916   -912   -901   0.16   180   2
Torsion   -912   -916   -912   -901   0.285   0   3
Torsion   -912   -912   -912   -912   0.051   0   1
Torsion   -912   -912   -912   -912   0.341   180   2
Torsion   -912   -912   -912   -912   0.166   0   3
Torsion   -912   -912   -912   -916   -0.344   0   1
Torsion   -912   -912   -912   -916   0.878   180   2
Torsion   -912   -912   -912   -916   0.238   0   3
Torsion   -912   -912   -912   -901   0.32   0   1
Torsion   -912   -912   -912   -901   -0.315   180   2
Torsion   -912   -912   -912   -901   0.132   0   3
Torsion   -912   -912   -916   -801   0.135   180   2
Torsion   -912   -912   -916   -801   0.118   0   3
Torsion   -916   -912   -912   -916   0.204   0   1
Torsion   -916   -912   -912   -916   0.699   180   2
Torsion   -916   -912   -912   -916   0.48   0   3
Torsion   -916   -912   -912   -901   -0.327   0   1
Torsion   -916   -912   -912   -901   0.536   180   2
Torsion   -916   -912   -912   -901   0.14   0   3
Torsion   -916   -912   -916   -801   0.744   0   1
Torsion   -916   -912   -916   -801   -1.7   180   2
Torsion   -916   -912   -916   -801   -0.16   0   3
Torsion   -912   -916   -912   -916   0.115   0   1
Torsion   -912   -916   -912   -916   -0.355   180   2
Torsion   -912   -916   -912   -916   0.361   0   3
Torsion   -901   -912   -912   -901   0.142   0   1
Torsion   -901   -912   -912   -901   -0.693   180   2
Torsion   -901   -912   -912   -901   0.157   0   3
Torsion   -901   -912   -916   -801   0.298   0   1
Torsion   -901   -912   -916   -801   -0.138   180   2
Torsion   -901   -912   -916   -801   0.173   0   3
Imptor	-912   -912   -916   -916       0.000  0     0.00
Imptor	-912   -916   -916   -901     0.000  0     0.00
Imptor	-912   -912   -916   -912       0.000  0     0.00
Imptor	-912   -912   -916   -901     0.000  0     0.00
Imptor	-912   -912   -912   -916       0.000  0     0.00
Imptor	-912   -912   -912   -901     0.000  0     0.00
Imptor	-912   -916   -912   -901     0.000  0     0.00
$end

$opt
fixed
63	XYZ
64	XYZ
65	XYZ
66	XYZ
67	XYZ
68	XYZ
69	XYZ
70	XYZ
71	XYZ
72	XYZ
73	XYZ
74	XYZ
75	XYZ
76	XYZ
77	XYZ
78	XYZ
79	XYZ
80	XYZ
81	XYZ
82	XYZ
83	XYZ
84	XYZ
85	XYZ
86	XYZ
87	XYZ
88	XYZ
89	XYZ
90	XYZ
91	XYZ
92	XYZ
93	XYZ
94	XYZ
95	XYZ
96	XYZ
97	XYZ
98	XYZ
99	XYZ
100	XYZ
101	XYZ
102	XYZ
103	XYZ
104	XYZ
105	XYZ
106	XYZ
107	XYZ
108	XYZ
109	XYZ
110	XYZ
111	XYZ
112	XYZ
113	XYZ
114	XYZ
115	XYZ
116	XYZ
117	XYZ
118	XYZ
119	XYZ
120	XYZ
121	XYZ
122	XYZ
123	XYZ
124	XYZ
125	XYZ
126	XYZ
127	XYZ
128	XYZ
129	XYZ
130	XYZ
131	XYZ
132	XYZ
133	XYZ
134	XYZ
135	XYZ
136	XYZ
137	XYZ
138	XYZ
139	XYZ
140	XYZ
141	XYZ
142	XYZ
143	XYZ
144	XYZ
145	XYZ
146	XYZ
147	XYZ
148	XYZ
149	XYZ
150	XYZ
151	XYZ
152	XYZ
153	XYZ
154	XYZ
155	XYZ
156	XYZ
157	XYZ
158	XYZ
159	XYZ
160	XYZ
161	XYZ
162	XYZ
163	XYZ
164	XYZ
165	XYZ
166	XYZ
167	XYZ
168	XYZ
169	XYZ
170	XYZ
171	XYZ
172	XYZ
173	XYZ
174	XYZ
175	XYZ
176	XYZ
177	XYZ
178	XYZ
179	XYZ
180	XYZ
181	XYZ
182	XYZ
183	XYZ
184	XYZ
185	XYZ
186	XYZ
187	XYZ
188	XYZ
189	XYZ
190	XYZ
191	XYZ
192	XYZ
193	XYZ
194	XYZ
195	XYZ
196	XYZ
197	XYZ
198	XYZ
199	XYZ
200	XYZ
201	XYZ
202	XYZ
203	XYZ
204	XYZ
205	XYZ
206	XYZ
207	XYZ
208	XYZ
209	XYZ
210	XYZ
211	XYZ
212	XYZ
213	XYZ
214	XYZ
215	XYZ
216	XYZ
217	XYZ
218	XYZ
219	XYZ
220	XYZ
221	XYZ
222	XYZ
223	XYZ
224	XYZ
225	XYZ
226	XYZ
227	XYZ
228	XYZ
229	XYZ
230	XYZ
231	XYZ
232	XYZ
233	XYZ
234	XYZ
235	XYZ
236	XYZ
237	XYZ
238	XYZ
239	XYZ
240	XYZ
241	XYZ
242	XYZ
243	XYZ
244	XYZ
245	XYZ
246	XYZ
247	XYZ
248	XYZ
249	XYZ
250	XYZ
251	XYZ
252	XYZ
253	XYZ
254	XYZ
255	XYZ
256	XYZ
257	XYZ
258	XYZ
259	XYZ
260	XYZ
261	XYZ
262	XYZ
263	XYZ
264	XYZ
265	XYZ
266	XYZ
267	XYZ
268	XYZ
269	XYZ
270	XYZ
271	XYZ
272	XYZ
273	XYZ
274	XYZ
275	XYZ
276	XYZ
277	XYZ
278	XYZ
279	XYZ
280	XYZ
281	XYZ
282	XYZ
283	XYZ
284	XYZ
285	XYZ
286	XYZ
287	XYZ
288	XYZ
289	XYZ
290	XYZ
291	XYZ
292	XYZ
293	XYZ
294	XYZ
295	XYZ
296	XYZ
297	XYZ
298	XYZ
299	XYZ
300	XYZ
301	XYZ
302	XYZ
303	XYZ
304	XYZ
305	XYZ
306	XYZ
307	XYZ
308	XYZ
309	XYZ
310	XYZ
311	XYZ
312	XYZ
313	XYZ
314	XYZ
315	XYZ
316	XYZ
317	XYZ
318	XYZ
319	XYZ
320	XYZ
321	XYZ
322	XYZ
323	XYZ
324	XYZ
325	XYZ
326	XYZ
327	XYZ
328	XYZ
329	XYZ
330	XYZ
331	XYZ
332	XYZ
333	XYZ
334	XYZ
335	XYZ
336	XYZ
337	XYZ
338	XYZ
339	XYZ
340	XYZ
341	XYZ
342	XYZ
343	XYZ
344	XYZ
345	XYZ
346	XYZ
347	XYZ
348	XYZ
349	XYZ
350	XYZ
351	XYZ
352	XYZ
353	XYZ
354	XYZ
355	XYZ
356	XYZ
357	XYZ
358	XYZ
359	XYZ
360	XYZ
361	XYZ
362	XYZ
363	XYZ
364	XYZ
365	XYZ
366	XYZ
367	XYZ
368	XYZ
369	XYZ
370	XYZ
371	XYZ
372	XYZ
373	XYZ
374	XYZ
375	XYZ
376	XYZ
377	XYZ
378	XYZ
379	XYZ
380	XYZ
381	XYZ
382	XYZ
383	XYZ
384	XYZ
385	XYZ
386	XYZ
387	XYZ
388	XYZ
389	XYZ
390	XYZ
391	XYZ
392	XYZ
393	XYZ
394	XYZ
395	XYZ
396	XYZ
397	XYZ
398	XYZ
399	XYZ
400	XYZ
401	XYZ
402	XYZ
403	XYZ
404	XYZ
405	XYZ
406	XYZ
407	XYZ
408	XYZ
409	XYZ
410	XYZ
411	XYZ
412	XYZ
413	XYZ
414	XYZ
415	XYZ
416	XYZ
417	XYZ
418	XYZ
419	XYZ
420	XYZ
421	XYZ
422	XYZ
423	XYZ
424	XYZ
425	XYZ
426	XYZ
427	XYZ
428	XYZ
429	XYZ
430	XYZ
431	XYZ
432	XYZ
433	XYZ
434	XYZ
435	XYZ
436	XYZ
437	XYZ
438	XYZ
439	XYZ
440	XYZ
441	XYZ
442	XYZ
443	XYZ
444	XYZ
445	XYZ
446	XYZ
447	XYZ
448	XYZ
449	XYZ
450	XYZ
451	XYZ
452	XYZ
453	XYZ
454	XYZ
455	XYZ
456	XYZ
457	XYZ
458	XYZ
459	XYZ
460	XYZ
461	XYZ
462	XYZ
463	XYZ
464	XYZ
465	XYZ
466	XYZ
467	XYZ
468	XYZ
469	XYZ
470	XYZ
471	XYZ
472	XYZ
473	XYZ
474	XYZ
475	XYZ
476	XYZ
477	XYZ
478	XYZ
479	XYZ
480	XYZ
481	XYZ
482	XYZ
483	XYZ
484	XYZ
485	XYZ
486	XYZ
487	XYZ
488	XYZ
489	XYZ
490	XYZ
491	XYZ
492	XYZ
493	XYZ
494	XYZ
495	XYZ
496	XYZ
497	XYZ
498	XYZ
499	XYZ
500	XYZ
501	XYZ
502	XYZ
503	XYZ
504	XYZ
505	XYZ
506	XYZ
507	XYZ
508	XYZ
509	XYZ
510	XYZ
511	XYZ
512	XYZ
513	XYZ
514	XYZ
515	XYZ
516	XYZ
517	XYZ
518	XYZ
519	XYZ
520	XYZ
521	XYZ
522	XYZ
523	XYZ
524	XYZ
525	XYZ
526	XYZ
527	XYZ
528	XYZ
529	XYZ
530	XYZ
531	XYZ
532	XYZ
533	XYZ
534	XYZ
535	XYZ
536	XYZ
537	XYZ
538	XYZ
539	XYZ
540	XYZ
541	XYZ
542	XYZ
543	XYZ
544	XYZ
545	XYZ
546	XYZ
547	XYZ
548	XYZ
549	XYZ
550	XYZ
551	XYZ
552	XYZ
553	XYZ
554	XYZ
555	XYZ
556	XYZ
557	XYZ
558	XYZ
559	XYZ
560	XYZ
561	XYZ
562	XYZ
563	XYZ
564	XYZ
565	XYZ
566	XYZ
567	XYZ
568	XYZ
569	XYZ
570	XYZ
571	XYZ
572	XYZ
573	XYZ
574	XYZ
575	XYZ
576	XYZ
577	XYZ
578	XYZ
579	XYZ
580	XYZ
581	XYZ
582	XYZ
583	XYZ
584	XYZ
585	XYZ
586	XYZ
587	XYZ
588	XYZ
589	XYZ
590	XYZ
591	XYZ
592	XYZ
593	XYZ
594	XYZ
595	XYZ
596	XYZ
597	XYZ
598	XYZ
599	XYZ
600	XYZ
601	XYZ
602	XYZ
603	XYZ
604	XYZ
605	XYZ
606	XYZ
607	XYZ
608	XYZ
609	XYZ
610	XYZ
611	XYZ
612	XYZ
613	XYZ
614	XYZ
615	XYZ
616	XYZ
617	XYZ
618	XYZ
619	XYZ
620	XYZ
621	XYZ
622	XYZ
623	XYZ
624	XYZ
625	XYZ
626	XYZ
627	XYZ
628	XYZ
629	XYZ
630	XYZ
631	XYZ
632	XYZ
633	XYZ
634	XYZ
635	XYZ
636	XYZ
637	XYZ
638	XYZ
639	XYZ
640	XYZ
641	XYZ
642	XYZ
643	XYZ
644	XYZ
645	XYZ
646	XYZ
647	XYZ
648	XYZ
649	XYZ
650	XYZ
651	XYZ
652	XYZ
653	XYZ
654	XYZ
655	XYZ
656	XYZ
657	XYZ
658	XYZ
659	XYZ
660	XYZ
661	XYZ
662	XYZ
663	XYZ
664	XYZ
665	XYZ
666	XYZ
667	XYZ
668	XYZ
669	XYZ
670	XYZ
671	XYZ
672	XYZ
673	XYZ
674	XYZ
675	XYZ
676	XYZ
677	XYZ
678	XYZ
679	XYZ
680	XYZ
681	XYZ
682	XYZ
683	XYZ
684	XYZ
685	XYZ
686	XYZ
687	XYZ
688	XYZ
689	XYZ
690	XYZ
691	XYZ
692	XYZ
693	XYZ
694	XYZ
695	XYZ
696	XYZ
697	XYZ
698	XYZ
699	XYZ
700	XYZ
701	XYZ
702	XYZ
703	XYZ
704	XYZ
705	XYZ
706	XYZ
707	XYZ
708	XYZ
709	XYZ
710	XYZ
711	XYZ
712	XYZ
713	XYZ
714	XYZ
715	XYZ
716	XYZ
717	XYZ
718	XYZ
719	XYZ
720	XYZ
721	XYZ
722	XYZ
723	XYZ
724	XYZ
725	XYZ
726	XYZ
727	XYZ
728	XYZ
729	XYZ
730	XYZ
731	XYZ
732	XYZ
733	XYZ
734	XYZ
735	XYZ
736	XYZ
737	XYZ
738	XYZ
739	XYZ
740	XYZ
741	XYZ
742	XYZ
743	XYZ
744	XYZ
745	XYZ
746	XYZ
747	XYZ
748	XYZ
749	XYZ
750	XYZ
751	XYZ
752	XYZ
753	XYZ
754	XYZ
755	XYZ
756	XYZ
757	XYZ
758	XYZ
759	XYZ
760	XYZ
761	XYZ
762	XYZ
763	XYZ
764	XYZ
765	XYZ
766	XYZ
767	XYZ
768	XYZ
769	XYZ
770	XYZ
771	XYZ
772	XYZ
773	XYZ
774	XYZ
775	XYZ
776	XYZ
777	XYZ
778	XYZ
779	XYZ
780	XYZ
781	XYZ
782	XYZ
783	XYZ
784	XYZ
785	XYZ
786	XYZ
787	XYZ
788	XYZ
789	XYZ
790	XYZ
791	XYZ
792	XYZ
793	XYZ
794	XYZ
795	XYZ
796	XYZ
797	XYZ
798	XYZ
799	XYZ
800	XYZ
801	XYZ
802	XYZ
803	XYZ
804	XYZ
805	XYZ
806	XYZ
807	XYZ
808	XYZ
809	XYZ
810	XYZ
811	XYZ
812	XYZ
813	XYZ
814	XYZ
815	XYZ
816	XYZ
817	XYZ
818	XYZ
819	XYZ
820	XYZ
821	XYZ
822	XYZ
823	XYZ
824	XYZ
825	XYZ
826	XYZ
827	XYZ
828	XYZ
829	XYZ
830	XYZ
831	XYZ
832	XYZ
833	XYZ
834	XYZ
835	XYZ
836	XYZ
837	XYZ
838	XYZ
839	XYZ
840	XYZ
841	XYZ
842	XYZ
843	XYZ
844	XYZ
845	XYZ
846	XYZ
847	XYZ
848	XYZ
849	XYZ
850	XYZ
851	XYZ
852	XYZ
853	XYZ
854	XYZ
855	XYZ
856	XYZ
857	XYZ
858	XYZ
859	XYZ
860	XYZ
861	XYZ
862	XYZ
863	XYZ
864	XYZ
865	XYZ
866	XYZ
867	XYZ
868	XYZ
869	XYZ
870	XYZ
871	XYZ
872	XYZ
873	XYZ
874	XYZ
875	XYZ
876	XYZ
877	XYZ
878	XYZ
879	XYZ
880	XYZ
881	XYZ
882	XYZ
883	XYZ
884	XYZ
885	XYZ
886	XYZ
887	XYZ
888	XYZ
889	XYZ
890	XYZ
891	XYZ
892	XYZ
893	XYZ
894	XYZ
895	XYZ
896	XYZ
897	XYZ
898	XYZ
899	XYZ
900	XYZ
901	XYZ
902	XYZ
903	XYZ
904	XYZ
905	XYZ
906	XYZ
907	XYZ
908	XYZ
909	XYZ
910	XYZ
911	XYZ
912	XYZ
913	XYZ
914	XYZ
915	XYZ
916	XYZ
917	XYZ
918	XYZ
919	XYZ
920	XYZ
921	XYZ
922	XYZ
923	XYZ
924	XYZ
925	XYZ
926	XYZ
927	XYZ
928	XYZ
929	XYZ
930	XYZ
931	XYZ
932	XYZ
933	XYZ
934	XYZ
935	XYZ
936	XYZ
937	XYZ
938	XYZ
939	XYZ
940	XYZ
941	XYZ
942	XYZ
943	XYZ
944	XYZ
945	XYZ
946	XYZ
947	XYZ
948	XYZ
949	XYZ
950	XYZ
951	XYZ
952	XYZ
953	XYZ
954	XYZ
955	XYZ
956	XYZ
957	XYZ
958	XYZ
959	XYZ
960	XYZ
961	XYZ
962	XYZ
963	XYZ
964	XYZ
965	XYZ
966	XYZ
967	XYZ
968	XYZ
969	XYZ
970	XYZ
971	XYZ
972	XYZ
973	XYZ
974	XYZ
975	XYZ
976	XYZ
977	XYZ
978	XYZ
979	XYZ
980	XYZ
981	XYZ
982	XYZ
983	XYZ
984	XYZ
985	XYZ
986	XYZ
987	XYZ
988	XYZ
989	XYZ
990	XYZ
991	XYZ
992	XYZ
993	XYZ
994	XYZ
995	XYZ
996	XYZ
997	XYZ
998	XYZ
999	XYZ
1000	XYZ
1001	XYZ
1002	XYZ
1003	XYZ
1004	XYZ
1005	XYZ
1006	XYZ
1007	XYZ
1008	XYZ
1009	XYZ
1010	XYZ
1011	XYZ
1012	XYZ
1013	XYZ
1014	XYZ
1015	XYZ
1016	XYZ
1017	XYZ
1018	XYZ
1019	XYZ
1020	XYZ
1021	XYZ
1022	XYZ
1023	XYZ
1024	XYZ
1025	XYZ
1026	XYZ
1027	XYZ
1028	XYZ
1029	XYZ
1030	XYZ
1031	XYZ
1032	XYZ
1033	XYZ
1034	XYZ
1035	XYZ
1036	XYZ
1037	XYZ
1038	XYZ
1039	XYZ
1040	XYZ
1041	XYZ
1042	XYZ
1043	XYZ
1044	XYZ
1045	XYZ
1046	XYZ
1047	XYZ
1048	XYZ
1049	XYZ
1050	XYZ
1051	XYZ
1052	XYZ
1053	XYZ
1054	XYZ
1055	XYZ
1056	XYZ
1057	XYZ
1058	XYZ
1059	XYZ
1060	XYZ
1061	XYZ
1062	XYZ
1063	XYZ
1064	XYZ
1065	XYZ
1066	XYZ
1067	XYZ
1068	XYZ
1069	XYZ
1070	XYZ
1071	XYZ
1072	XYZ
1073	XYZ
1074	XYZ
1075	XYZ
1076	XYZ
1077	XYZ
1078	XYZ
1079	XYZ
1080	XYZ
1081	XYZ
1082	XYZ
1083	XYZ
1084	XYZ
1085	XYZ
1086	XYZ
1087	XYZ
1088	XYZ
1089	XYZ
1090	XYZ
1091	XYZ
1092	XYZ
1093	XYZ
1094	XYZ
1095	XYZ
1096	XYZ
1097	XYZ
1098	XYZ
1099	XYZ
1100	XYZ
1101	XYZ
1102	XYZ
1103	XYZ
1104	XYZ
1105	XYZ
1106	XYZ
1107	XYZ
1108	XYZ
1109	XYZ
1110	XYZ
1111	XYZ
1112	XYZ
1113	XYZ
1114	XYZ
1115	XYZ
1116	XYZ
1117	XYZ
1118	XYZ
1119	XYZ
1120	XYZ
1121	XYZ
1122	XYZ
1123	XYZ
1124	XYZ
1125	XYZ
1126	XYZ
1127	XYZ
1128	XYZ
1129	XYZ
1130	XYZ
1131	XYZ
1132	XYZ
1133	XYZ
1134	XYZ
1135	XYZ
1136	XYZ
1137	XYZ
1138	XYZ
1139	XYZ
1140	XYZ
1141	XYZ
1142	XYZ
1143	XYZ
1144	XYZ
1145	XYZ
1146	XYZ
1147	XYZ
1148	XYZ
1149	XYZ
1150	XYZ
1151	XYZ
1152	XYZ
1153	XYZ
1154	XYZ
1155	XYZ
1156	XYZ
1157	XYZ
1158	XYZ
1159	XYZ
1160	XYZ
1161	XYZ
1162	XYZ
1163	XYZ
1164	XYZ
1165	XYZ
1166	XYZ
1167	XYZ
1168	XYZ
1169	XYZ
1170	XYZ
1171	XYZ
1172	XYZ
1173	XYZ
1174	XYZ
1175	XYZ
1176	XYZ
1177	XYZ
1178	XYZ
1179	XYZ
1180	XYZ
1181	XYZ
1182	XYZ
1183	XYZ
1184	XYZ
1185	XYZ
1186	XYZ
1187	XYZ
1188	XYZ
1189	XYZ
1190	XYZ
1191	XYZ
1192	XYZ
1193	XYZ
1194	XYZ
1195	XYZ
1196	XYZ
1197	XYZ
1198	XYZ
1199	XYZ
1200	XYZ
1201	XYZ
1202	XYZ
1203	XYZ
1204	XYZ
1205	XYZ
1206	XYZ
1207	XYZ
1208	XYZ
1209	XYZ
1210	XYZ
1211	XYZ
1212	XYZ
1213	XYZ
1214	XYZ
1215	XYZ
1216	XYZ
1217	XYZ
1218	XYZ
1219	XYZ
1220	XYZ
1221	XYZ
1222	XYZ
1223	XYZ
1224	XYZ
1225	XYZ
1226	XYZ
1227	XYZ
1228	XYZ
1229	XYZ
1230	XYZ
1231	XYZ
1232	XYZ
1233	XYZ
1234	XYZ
1235	XYZ
1236	XYZ
1237	XYZ
1238	XYZ
1239	XYZ
1240	XYZ
1241	XYZ
1242	XYZ
1243	XYZ
1244	XYZ
1245	XYZ
1246	XYZ
1247	XYZ
1248	XYZ
1249	XYZ
1250	XYZ
1251	XYZ
1252	XYZ
1253	XYZ
1254	XYZ
1255	XYZ
1256	XYZ
1257	XYZ
1258	XYZ
1259	XYZ
1260	XYZ
1261	XYZ
1262	XYZ
1263	XYZ
1264	XYZ
1265	XYZ
1266	XYZ
1267	XYZ
1268	XYZ
1269	XYZ
1270	XYZ
1271	XYZ
1272	XYZ
1273	XYZ
1274	XYZ
1275	XYZ
1276	XYZ
1277	XYZ
1278	XYZ
1279	XYZ
1280	XYZ
1281	XYZ
1282	XYZ
1283	XYZ
1284	XYZ
1285	XYZ
1286	XYZ
1287	XYZ
1288	XYZ
1289	XYZ
1290	XYZ
1291	XYZ
1292	XYZ
1293	XYZ
1294	XYZ
1295	XYZ
1296	XYZ
1297	XYZ
1298	XYZ
1299	XYZ
1300	XYZ
1301	XYZ
1302	XYZ
1303	XYZ
1304	XYZ
1305	XYZ
1306	XYZ
1307	XYZ
1308	XYZ
1309	XYZ
1310	XYZ
1311	XYZ
1312	XYZ
1313	XYZ
1314	XYZ
1315	XYZ
1316	XYZ
1317	XYZ
1318	XYZ
1319	XYZ
1320	XYZ
1321	XYZ
1322	XYZ
1323	XYZ
1324	XYZ
1325	XYZ
1326	XYZ
1327	XYZ
1328	XYZ
1329	XYZ
1330	XYZ
1331	XYZ
1332	XYZ
1333	XYZ
1334	XYZ
1335	XYZ
1336	XYZ
1337	XYZ
1338	XYZ
1339	XYZ
1340	XYZ
1341	XYZ
1342	XYZ
1343	XYZ
1344	XYZ
1345	XYZ
1346	XYZ
1347	XYZ
1348	XYZ
1349	XYZ
1350	XYZ
1351	XYZ
1352	XYZ
1353	XYZ
1354	XYZ
1355	XYZ
1356	XYZ
1357	XYZ
1358	XYZ
1359	XYZ
1360	XYZ
1361	XYZ
1362	XYZ
1363	XYZ
1364	XYZ
1365	XYZ
1366	XYZ
1367	XYZ
1368	XYZ
1369	XYZ
1370	XYZ
1371	XYZ
1372	XYZ
1373	XYZ
1374	XYZ
1375	XYZ
1376	XYZ
1377	XYZ
1378	XYZ
1379	XYZ
1380	XYZ
1381	XYZ
1382	XYZ
1383	XYZ
1384	XYZ
1385	XYZ
1386	XYZ
1387	XYZ
1388	XYZ
1389	XYZ
1390	XYZ
1391	XYZ
1392	XYZ
1393	XYZ
1394	XYZ
1395	XYZ
1396	XYZ
1397	XYZ
1398	XYZ
1399	XYZ
1400	XYZ
1401	XYZ
1402	XYZ
1403	XYZ
1404	XYZ
1405	XYZ
1406	XYZ
1407	XYZ
1408	XYZ
1409	XYZ
1410	XYZ
1411	XYZ
1412	XYZ
1413	XYZ
1414	XYZ
1415	XYZ
1416	XYZ
1417	XYZ
1418	XYZ
1419	XYZ
1420	XYZ
1421	XYZ
1422	XYZ
1423	XYZ
1424	XYZ
1425	XYZ
1426	XYZ
1427	XYZ
1428	XYZ
1429	XYZ
1430	XYZ
1431	XYZ
1432	XYZ
1433	XYZ
1434	XYZ
1435	XYZ
1436	XYZ
1437	XYZ
1438	XYZ
1439	XYZ
1440	XYZ
1441	XYZ
1442	XYZ
1443	XYZ
1444	XYZ
1445	XYZ
1446	XYZ
1447	XYZ
1448	XYZ
1449	XYZ
1450	XYZ
1451	XYZ
1452	XYZ
1453	XYZ
1454	XYZ
1455	XYZ
1456	XYZ
1457	XYZ
1458	XYZ
1459	XYZ
1460	XYZ
1461	XYZ
1462	XYZ
1463	XYZ
1464	XYZ
1465	XYZ
1466	XYZ
1467	XYZ
1468	XYZ
1469	XYZ
1470	XYZ
1471	XYZ
1472	XYZ
1473	XYZ
1474	XYZ
1475	XYZ
1476	XYZ
1477	XYZ
1478	XYZ
1479	XYZ
1480	XYZ
1481	XYZ
1482	XYZ
1483	XYZ
1484	XYZ
1485	XYZ
1486	XYZ
1487	XYZ
1488	XYZ
1489	XYZ
1490	XYZ
1491	XYZ
1492	XYZ
1493	XYZ
1494	XYZ
1495	XYZ
1496	XYZ
1497	XYZ
1498	XYZ
1499	XYZ
1500	XYZ
1501	XYZ
1502	XYZ
1503	XYZ
1504	XYZ
1505	XYZ
1506	XYZ
1507	XYZ
1508	XYZ
1509	XYZ
1510	XYZ
1511	XYZ
1512	XYZ
1513	XYZ
1514	XYZ
1515	XYZ
1516	XYZ
1517	XYZ
1518	XYZ
1519	XYZ
1520	XYZ
1521	XYZ
1522	XYZ
1523	XYZ
1524	XYZ
1525	XYZ
1526	XYZ
1527	XYZ
1528	XYZ
1529	XYZ
1530	XYZ
1531	XYZ
1532	XYZ
1533	XYZ
1534	XYZ
1535	XYZ
1536	XYZ
1537	XYZ
1538	XYZ
1539	XYZ
1540	XYZ
1541	XYZ
1542	XYZ
1543	XYZ
1544	XYZ
1545	XYZ
1546	XYZ
1547	XYZ
1548	XYZ
1549	XYZ
1550	XYZ
1551	XYZ
1552	XYZ
1553	XYZ
1554	XYZ
1555	XYZ
1556	XYZ
1557	XYZ
1558	XYZ
1559	XYZ
1560	XYZ
1561	XYZ
1562	XYZ
1563	XYZ
1564	XYZ
1565	XYZ
1566	XYZ
1567	XYZ
1568	XYZ
1569	XYZ
1570	XYZ
1571	XYZ
1572	XYZ
1573	XYZ
1574	XYZ
1575	XYZ
1576	XYZ
1577	XYZ
1578	XYZ
1579	XYZ
1580	XYZ
1581	XYZ
1582	XYZ
1583	XYZ
1584	XYZ
1585	XYZ
1586	XYZ
1587	XYZ
1588	XYZ
1589	XYZ
1590	XYZ
1591	XYZ
1592	XYZ
1593	XYZ
1594	XYZ
1595	XYZ
1596	XYZ
1597	XYZ
1598	XYZ
1599	XYZ
1600	XYZ
1601	XYZ
1602	XYZ
1603	XYZ
1604	XYZ
1605	XYZ
1606	XYZ
1607	XYZ
1608	XYZ
1609	XYZ
1610	XYZ
1611	XYZ
1612	XYZ
1613	XYZ
1614	XYZ
1615	XYZ
1616	XYZ
1617	XYZ
1618	XYZ
1619	XYZ
1620	XYZ
1621	XYZ
1622	XYZ
1623	XYZ
1624	XYZ
1625	XYZ
1626	XYZ
1627	XYZ
1628	XYZ
1629	XYZ
1630	XYZ
1631	XYZ
1632	XYZ
1633	XYZ
1634	XYZ
1635	XYZ
1636	XYZ
1637	XYZ
1638	XYZ
1639	XYZ
1640	XYZ
1641	XYZ
1642	XYZ
1643	XYZ
1644	XYZ
1645	XYZ
1646	XYZ
1647	XYZ
1648	XYZ
1649	XYZ
1650	XYZ
1651	XYZ
1652	XYZ
1653	XYZ
1654	XYZ
1655	XYZ
1656	XYZ
1657	XYZ
1658	XYZ
1659	XYZ
1660	XYZ
1661	XYZ
1662	XYZ
1663	XYZ
1664	XYZ
1665	XYZ
1666	XYZ
1667	XYZ
1668	XYZ
1669	XYZ
1670	XYZ
1671	XYZ
1672	XYZ
1673	XYZ
1674	XYZ
1675	XYZ
1676	XYZ
1677	XYZ
1678	XYZ
1679	XYZ
1680	XYZ
1681	XYZ
1682	XYZ
1683	XYZ
1684	XYZ
1685	XYZ
1686	XYZ
1687	XYZ
1688	XYZ
1689	XYZ
1690	XYZ
1691	XYZ
1692	XYZ
1693	XYZ
1694	XYZ
1695	XYZ
1696	XYZ
1697	XYZ
1698	XYZ
1699	XYZ
1700	XYZ
1701	XYZ
1702	XYZ
1703	XYZ
1704	XYZ
1705	XYZ
1706	XYZ
1707	XYZ
1708	XYZ
1709	XYZ
1710	XYZ
1711	XYZ
1712	XYZ
1713	XYZ
1714	XYZ
1715	XYZ
1716	XYZ
1717	XYZ
1718	XYZ
1719	XYZ
1720	XYZ
1721	XYZ
1722	XYZ
1723	XYZ
1724	XYZ
1725	XYZ
1726	XYZ
1727	XYZ
1728	XYZ
1729	XYZ
1730	XYZ
1731	XYZ
1732	XYZ
1733	XYZ
1734	XYZ
1735	XYZ
1736	XYZ
1737	XYZ
1738	XYZ
1739	XYZ
1740	XYZ
1741	XYZ
1742	XYZ
1743	XYZ
1744	XYZ
1745	XYZ
1746	XYZ
1747	XYZ
1748	XYZ
1749	XYZ
1750	XYZ
1751	XYZ
1752	XYZ
1753	XYZ
1754	XYZ
1755	XYZ
1756	XYZ
1757	XYZ
1758	XYZ
1759	XYZ
1760	XYZ
1761	XYZ
1762	XYZ
1763	XYZ
1764	XYZ
1765	XYZ
1766	XYZ
1767	XYZ
1768	XYZ
1769	XYZ
1770	XYZ
1771	XYZ
1772	XYZ
1773	XYZ
1774	XYZ
1775	XYZ
1776	XYZ
1777	XYZ
1778	XYZ
1779	XYZ
1780	XYZ
1781	XYZ
1782	XYZ
1783	XYZ
1784	XYZ
1785	XYZ
1786	XYZ
1787	XYZ
1788	XYZ
1789	XYZ
1790	XYZ
1791	XYZ
1792	XYZ
1793	XYZ
1794	XYZ
1795	XYZ
1796	XYZ
1797	XYZ
1798	XYZ
1799	XYZ
1800	XYZ
1801	XYZ
1802	XYZ
1803	XYZ
1804	XYZ
1805	XYZ
1806	XYZ
1807	XYZ
1808	XYZ
1809	XYZ
1810	XYZ
1811	XYZ
1812	XYZ
1813	XYZ
1814	XYZ
1815	XYZ
1816	XYZ
1817	XYZ
1818	XYZ
1819	XYZ
1820	XYZ
1821	XYZ
1822	XYZ
1823	XYZ
1824	XYZ
1825	XYZ
1826	XYZ
1827	XYZ
1828	XYZ
1829	XYZ
1830	XYZ
1831	XYZ
1832	XYZ
1833	XYZ
1834	XYZ
1835	XYZ
1836	XYZ
1837	XYZ
1838	XYZ
1839	XYZ
1840	XYZ
1841	XYZ
1842	XYZ
1843	XYZ
1844	XYZ
1845	XYZ
1846	XYZ
1847	XYZ
1848	XYZ
1849	XYZ
1850	XYZ
1851	XYZ
1852	XYZ
1853	XYZ
1854	XYZ
1855	XYZ
1856	XYZ
1857	XYZ
1858	XYZ
1859	XYZ
1860	XYZ
1861	XYZ
1862	XYZ
1863	XYZ
1864	XYZ
1865	XYZ
1866	XYZ
1867	XYZ
1868	XYZ
1869	XYZ
1870	XYZ
1871	XYZ
1872	XYZ
1873	XYZ
1874	XYZ
1875	XYZ
1876	XYZ
1877	XYZ
1878	XYZ
1879	XYZ
1880	XYZ
1881	XYZ
1882	XYZ
1883	XYZ
1884	XYZ
1885	XYZ
1886	XYZ
1887	XYZ
1888	XYZ
1889	XYZ
1890	XYZ
1891	XYZ
1892	XYZ
1893	XYZ
1894	XYZ
1895	XYZ
1896	XYZ
1897	XYZ
1898	XYZ
1899	XYZ
1900	XYZ
1901	XYZ
1902	XYZ
1903	XYZ
1904	XYZ
1905	XYZ
1906	XYZ
1907	XYZ
1908	XYZ
1909	XYZ
1910	XYZ
1911	XYZ
1912	XYZ
1913	XYZ
1914	XYZ
1915	XYZ
1916	XYZ
1917	XYZ
1918	XYZ
1919	XYZ
1920	XYZ
1921	XYZ
1922	XYZ
1923	XYZ
1924	XYZ
1925	XYZ
1926	XYZ
1927	XYZ
1928	XYZ
1929	XYZ
1930	XYZ
1931	XYZ
1932	XYZ
1933	XYZ
1934	XYZ
1935	XYZ
1936	XYZ
1937	XYZ
1938	XYZ
1939	XYZ
1940	XYZ
1941	XYZ
1942	XYZ
1943	XYZ
1944	XYZ
1945	XYZ
1946	XYZ
1947	XYZ
1948	XYZ
1949	XYZ
1950	XYZ
1951	XYZ
1952	XYZ
1953	XYZ
1954	XYZ
1955	XYZ
1956	XYZ
1957	XYZ
1958	XYZ
1959	XYZ
1960	XYZ
1961	XYZ
1962	XYZ
1963	XYZ
1964	XYZ
1965	XYZ
1966	XYZ
1967	XYZ
1968	XYZ
1969	XYZ
1970	XYZ
1971	XYZ
1972	XYZ
1973	XYZ
1974	XYZ
1975	XYZ
1976	XYZ
1977	XYZ
1978	XYZ
1979	XYZ
1980	XYZ
1981	XYZ
1982	XYZ
1983	XYZ
1984	XYZ
1985	XYZ
1986	XYZ
1987	XYZ
1988	XYZ
1989	XYZ
1990	XYZ
1991	XYZ
1992	XYZ
1993	XYZ
1994	XYZ
1995	XYZ
1996	XYZ
1997	XYZ
1998	XYZ
1999	XYZ
2000	XYZ
2001	XYZ
2002	XYZ
2003	XYZ
2004	XYZ
2005	XYZ
2006	XYZ
2007	XYZ
2008	XYZ
2009	XYZ
2010	XYZ
2011	XYZ
2012	XYZ
2013	XYZ
2014	XYZ
2015	XYZ
2016	XYZ
2017	XYZ
2018	XYZ
2019	XYZ
2020	XYZ
2021	XYZ
2022	XYZ
2023	XYZ
2024	XYZ
2025	XYZ
2026	XYZ
2027	XYZ
2028	XYZ
2029	XYZ
2030	XYZ
2031	XYZ
2032	XYZ
2033	XYZ
2034	XYZ
2035	XYZ
2036	XYZ
2037	XYZ
2038	XYZ
2039	XYZ
2040	XYZ
2041	XYZ
2042	XYZ
2043	XYZ
2044	XYZ
2045	XYZ
2046	XYZ
2047	XYZ
2048	XYZ
2049	XYZ
2050	XYZ
2051	XYZ
2052	XYZ
2053	XYZ
2054	XYZ
2055	XYZ
2056	XYZ
2057	XYZ
2058	XYZ
2059	XYZ
2060	XYZ
2061	XYZ
2062	XYZ
2063	XYZ
2064	XYZ
2065	XYZ
2066	XYZ
2067	XYZ
2068	XYZ
2069	XYZ
2070	XYZ
2071	XYZ
2072	XYZ
2073	XYZ
2074	XYZ
2075	XYZ
2076	XYZ
2077	XYZ
2078	XYZ
2079	XYZ
2080	XYZ
2081	XYZ
2082	XYZ
2083	XYZ
2084	XYZ
2085	XYZ
2086	XYZ
2087	XYZ
2088	XYZ
2089	XYZ
2090	XYZ
2091	XYZ
2092	XYZ
2093	XYZ
2094	XYZ
2095	XYZ
2096	XYZ
2097	XYZ
2098	XYZ
2099	XYZ
2100	XYZ
2101	XYZ
2102	XYZ
2103	XYZ
2104	XYZ
2105	XYZ
2106	XYZ
2107	XYZ
2108	XYZ
2109	XYZ
2110	XYZ
2111	XYZ
2112	XYZ
2113	XYZ
2114	XYZ
2115	XYZ
2116	XYZ
2117	XYZ
2118	XYZ
2119	XYZ
2120	XYZ
2121	XYZ
2122	XYZ
2123	XYZ
2124	XYZ
2125	XYZ
2126	XYZ
2127	XYZ
2128	XYZ
2129	XYZ
2130	XYZ
2131	XYZ
2132	XYZ
2133	XYZ
2134	XYZ
2135	XYZ
2136	XYZ
2137	XYZ
2138	XYZ
2139	XYZ
2140	XYZ
2141	XYZ
2142	XYZ
2143	XYZ
2144	XYZ
2145	XYZ
2146	XYZ
2147	XYZ
2148	XYZ
2149	XYZ
2150	XYZ
2151	XYZ
2152	XYZ
2153	XYZ
2154	XYZ
2155	XYZ
2156	XYZ
2157	XYZ
2158	XYZ
2159	XYZ
2160	XYZ
2161	XYZ
2162	XYZ
2163	XYZ
2164	XYZ
2165	XYZ
2166	XYZ
2167	XYZ
2168	XYZ
2169	XYZ
2170	XYZ
2171	XYZ
2172	XYZ
2173	XYZ
2174	XYZ
2175	XYZ
2176	XYZ
2177	XYZ
2178	XYZ
2179	XYZ
2180	XYZ
2181	XYZ
2182	XYZ
2183	XYZ
2184	XYZ
2185	XYZ
2186    XYZ
2187    XYZ
2188    XYZ
2189    XYZ
2190    XYZ
2191    XYZ
2192    XYZ
2193    XYZ
endfixed
$end

$molecule
0 1
H       1.2079296214     0.1431373270     -0.9426475686 0  2  6  7  8
C       0.1236640013     0.0649156157     -0.7497172587 0  1  3  4  5
H       -0.2957777870     -0.8076650613     -1.2815840929 0  2  0  0  0
C       -0.1239407562     -0.0665648681     0.7473868904 0  2  0  0  0
H       -0.3522693524     0.9675201757     -1.1592218676 0  2  0  0  0
H       -1.1993948335     -0.1005261567     0.9727526796 0  1  0  0  0
H       0.3027582725     0.7928361241     1.2817358943 0  1  0  0  0
H       0.3400493528     -0.9756650438     1.1567122515 0  1  0  0  0
H       -2.7146175335     0.1984253546     -0.9390373240 0  13  0  0  0
Al       -4.2740282917     1.8587772491     -1.6528520246 0  11  12  13  14
O       -5.5941145340     2.2015074388     -0.6167163002 0  10  16  0  0
O       -2.8052746730     2.6494736939     -1.3065048438 0  17  10  0  0
O       -3.6682913777     0.1669900199     -1.1548639372 0  9  10  15  0
O       -4.6470181639     1.7212763707     -3.3177161012 0  10  18  0  0
Si       -4.4785223747     -1.2390843815     -0.6972761647 0  19  20  13  21
Si       -7.1985097722     2.3489160245     -0.7108491127 0  63  11  22  23
Si       -1.9445915032     3.9890450595     -1.3904894067 0  25  12  47  24
Si       -4.8795190452     2.7425809406     -4.5434362654 0  26  27  14  64
O       -3.8235766232     -1.5695838393     0.7409441947 0  28  15  0  0
O       -6.0617666264     -0.9571108040     -0.6460187686 0  29  15  0  0
O       -4.0809679764     -2.3526891069     -1.7984707536 0  30  15  0  0
O       -7.9021949086     0.9712681670     -0.1415626379 0  29  16  0  0
O       -7.6883810070     2.5651654335     -2.2618588663 0  31  16  0  0
O       -1.7939379581     4.5772626440     -2.9109854591 0  17  32  0  0
O       -0.4485928005     3.6095280866     -0.8752262431 0  17  33  0  0
O       -6.4625738858     3.1604913772     -4.6363024235 0  18  31  0  0
O       -4.0157433210     4.1349554733     -4.3299117819 0  18  32  0  0
Si       -3.7853055016     -2.2795008390     2.2178286025 0  41  35  19  71
Si       -7.4409706779     -0.5425059322     0.2048290341 0  73  74  20  22
Si       -3.7135746562     -3.9520262339     -1.9313506707 0  42  21  78  77
Si       -7.7590802531     3.4058487426     -3.6681792914 0  65  26  75  23
Si       -2.6399061053     5.0115461451     -4.2431114777 0  50  27  76  24
Si       0.8125637577     4.1277507705     -0.0266022113 0  25  51  52  40
Si       -1.0017419800     -2.0612717374     3.5382035151 0  36  35  68  38
O       -2.5153414881     -1.6957148458     3.0472420583 0  34  28  0  0
O       -0.3828375115     -3.2604192773     2.6090519529 0  34  46  0  0
O       -1.4988823859     -5.4145576869     1.4311756823 0  43  46  0  0
O       -0.1022769641     -0.7270975647     3.3570067764 0  34  45  0  0
O       0.8648873479     1.7096245530     3.5057620389 0  44  45  0  0
O       0.8572228618     3.2911556666     1.3768991667 0  33  44  0  0
O       -3.6334933125     -3.8937246231     1.9879637449 0  43  28  0  0
O       -2.9817174675     -4.4657682733     -0.5593149708 0  43  30  0  0
Si       -3.0148064044     -5.0340017197     0.9788911600 0  41  42  37  72
Si       1.4628524944     3.0925578520     2.8770347313 0  49  69  39  40
Si       1.1819448462     0.1511734135     3.8330553474 0  70  38  39  48
Si       -0.2362990152     -4.8732827824     2.3252461009 0  66  67  36  37
O       -2.6018796268     5.1504177189     -0.4290969674 0  17  53  0  0
O       2.4964787313     -0.3738990205     3.0139633205 0  58  45  0  0
O       3.0990384277     2.9976050609     2.7928293608 0  60  44  0  0
O       -3.0144206704     6.6015460962     -4.1325467465 0  56  32  0  0
O       0.7228712770     5.7244258536     0.3004432617 0  33  57  0  0
O       2.1390226290     3.8358664424     -0.9090311076 0  33  62  0  0
Si       -2.7415204179     6.7601990154     -0.1648533737 0  55  79  54  47
O       -2.7704827727     7.5502215794     -1.5957950405 0  53  56  0  0
O       -1.4636608169     7.2867763384     0.7036061714 0  57  53  0  0
Si       -3.4233109739     7.7891387448     -3.0813795014 0  50  85  54  80
Si       0.0440309552     6.9154367545     1.2096133825 0  81  51  86  55
Si       4.1350518587     -0.4533398694     2.9240257774 0  82  59  83  48
O       4.7527270383     0.9313821513     2.3181339003 0  58  60  0  0
Si       4.4187683019     2.4860921711     1.9627750848 0  49  59  84  61
O       4.1632670403     2.6031670379     0.3535354723 0  60  62  0  0
Si       3.7403241731     3.5462613983     -0.9186728074 0  52  61  87  88
O       -7.7103994686     3.4961820705     0.2393559098         -1	 89	 16	 0	 0
O       -4.4529956249     2.0405173759     -5.8897931744        -1	 105	 18	 0	 0
O       -7.8272404191     4.9624227524     -3.3200303372        -1	 31	 104	 0	 0
O       1.0798361718     -5.1359865126     1.4876783604         -1	 154	 46	 0	 0
O       -0.2135903807     -5.6519760090     3.7189086472        -1	 298	 46	 0	 0
O       -1.0590072040     -2.5078684243     5.0684300032        -1	 34	 295	 0	 0
O       1.0130190293     4.2757307360     3.8172658567          -1	 44	 199	 0	 0
O       1.4081189232     -0.0139433813     5.4039662197         -1	 45	 272	 0	 0
O       -5.1047039115     -1.9125317694     2.9850842762        -1	 378	 28	 0	 0
O       -3.9224703507     -6.3130335005     1.0958878008        -1	 43	 243	 0	 0
O       -8.6370927514     -1.4694488482     -0.2591610304       -1	 29	 247	 0	 0
O       -7.1245014129     -0.7470890183     1.7677740251        -1	 378	 29	 0	 0
O       -9.0350840942     2.9392407322     -4.4851385593        -1	 285	 31	 0	 0
O       -1.7085496084     4.8176328869     -5.5144846333        -1	 307	 32	 0	 0
O       -2.7477171252     -4.1283998672     -3.1796444172       -1	 30	 384	 0	 0
O       -5.0880024736     -4.7242693882     -2.1422838231       -1	 388	 30	 0	 0
O       -4.0422818388     7.0529413382     0.6960730714         -1	 90	 53	 0	 0
O       -5.0128604136     7.8079646879     -2.9375760547        -1	 92	 56	 0	 0
O       -0.0198396872     6.4381643298     2.7335897871         -1	 57	 199	 0	 0
O       4.5324754445     -1.6437903375     1.9574218305         -1	 58	 210	 0	 0
O       4.7199490540     -0.6634857784     4.3902676162         -1	 58	 275	 0	 0
O       5.6493175022     3.3661448906     2.3972397792          -1	 226	 60	 0	 0
O       -2.8776581518     9.1681908916     -3.6485767413        -1	 229	 56	 0	 0
O       0.9339822818     8.2103696876     1.0424774842          -1	 57	 233	 0	 0
O       4.4837853793     4.9549090030     -0.8409318447         -1	 372	 62	 0	 0
O       4.0796247112     2.7736630130     -2.2536009799         -1	 374	 62	 0	 0
Si       -7.8565629545     5.1012750100     0.4079912882        -23	 97	 93	 63	 96
Si       -5.6402706910     7.2860609783     0.7019774703        -23	 95	 93	 94	 79
Si       -6.9818602340     8.2567665039     3.3414236775        -2	 98	 99	 100	 94
Si       -6.3168672659     8.3422008109     -2.1610949578       -23	 101	 102	 95	 80
O       -6.4143275990     5.8542551319     0.6314798007         -1	 89	 90	 0	 0
O       -5.9969310473     8.0877062507     2.0581644956         -1	 90	 91	 0	 0
O       -6.0939608513     8.2240944307     -0.5435073672        -1	 90	 92	 0	 0
O       -8.7720290730     5.2940489915     1.6819477152         -1	 89	 103	 0	 0
O       -8.5522927320     5.7047771247     -0.9016465526        -1	 89	 104	 0	 0
O       -6.2472876812     7.6590669374     4.6404988843         -1	 106	 91	 0	 0
O       -7.2806919261     9.8218991079     3.5580652056         -1	 91	 107	 0	 0
O       -8.3685495082     7.4745656943     3.0945517466         -1	 91	 103	 0	 0
O       -7.5979252345     7.4765839059     -2.5940012465        -1	 92	 104	 0	 0
O       -6.5644341160     9.8887944538     -2.5188654968        -1	 108	 92	 0	 0
Si       -9.1473544685     6.0672916745     3.0446852544        -2	 100	 109	 110	 96
Si       -8.4868185184     6.1437467174     -2.4488607666       -23	 97	 65	 101	 111
Si       -3.4977027616     1.8551615256     -7.1719837820       -23	 353	 354	 308	 64
Si       -6.3134429981     7.2193680576     6.1876479945        -2	 260	 98	 332	 333
Si       -7.7272042007     11.0244021128     4.5280700056       -2	 99	 368	 335	 363
Si       -6.0338897990     11.2847454163     -3.1241229939      -2	 361	 362	 102	 232
O       -10.7333311988     6.3297029328     3.0883217355        -1	 103	 112	 0	 0
O       -8.7142465171     5.1649003264     4.3059185227         -1	 113	 103	 0	 0
O       -9.9780832068     6.4379260773     -2.9839421933        -1	 114	 104	 0	 0
Si       -12.0636851513     6.6392920297     3.9381822842       -2	 395	 109	 390	 391
Si       -8.4861265034     5.0227573656     5.8924567788        -2	 195	 332	 110	 407
Si       -11.2685155979     5.9914063954     -3.8355221471      -2	 196	 197	 198	 111
O       -3.3894692165     4.9290403756     11.0226654126        -1	 118	 311	 0	 0
O       -4.4236731547     2.5174699724     10.9478161990        -1	 145	 118	 0	 0
O       -2.9109145250     3.2395882343     12.9757071093        -1	 118	 119	 0	 0
Si       -3.1392018299     3.3819727631     11.3882129984       -2	 115	 116	 117	 127
Si       -2.4793677878     2.3373493116     14.2362059551       -2	 125	 117	 126	 120
O       -2.8532992603     3.1106811372     15.5987220620        -1	 121	 119	 0	 0
Si       -3.8084248324     3.2957954195     16.8818685244       -2	 122	 123	 124	 120
O       -3.0735494134     2.6989821488     18.1832070809        -1	 121	 1583	 0	 0
O       -4.1064398463     4.8627851744     17.0998826511        -1	 121	 873	 0	 0
O       -5.1941301371     2.5152101929     16.6373250470        -1	 121	 150	 0	 0
O       -0.8911170236     2.0741454832     14.1930173604        -1	 290	 119	 0	 0
O       -3.2574599285     0.9294351472     14.1860529268        -1	 148	 119	 0	 0
O       -1.8391221458     2.8478798993     10.6051321419        -1	 118	 288	 0	 0
Si       -8.0942635180     1.0322924619     9.7062952984        -2	 129	 130	 131	 132
O       -6.8036638358     1.4785705759     10.5588311071        -1	 145	 128	 0	 0
O       -8.1318720214     1.8571417681     8.3248604564         -1	 188	 128	 0	 0
O       -8.0115075110     -0.5446114444     9.3937228850        -1	 341	 128	 0	 0
O       -9.4237373596     1.3409998461     10.5568251659        -1	 133	 128	 0	 0
Si       -11.0112753042     1.6035635299     10.5997272244      -2	 132	 140	 134	 135
O       -11.4442159644     2.5057133101     9.3394498109        -1	 133	 190	 0	 0
O       -11.7900802645     0.1962895101     10.5498607322       -1	 133	 136	 0	 0
Si       -13.1757855693     -0.5842957165     10.3053172548     -2	 137	 138	 139	 135
O       -14.1301983217     -0.3998215789     11.5881771812      -1	 779	 136	 0	 0
O       -12.8778022717     -2.1499160396     10.0876547680      -1	 351	 136	 0	 0
O       -13.9106292719     0.0111481224     9.0036270584        -1	 193	 136	 0	 0
O       -11.3859195964     2.3775355001     11.9625298674       -1	 141	 133	 0	 0
Si       -12.3410451684     2.5626497824     13.2456763298      -2	 140	 142	 143	 144
O       -13.7260376535     1.7814244111     13.0008463163       -1	 779	 141	 0	 0
O       -12.6390601823     4.1296395373     13.4636904566       -1	 141	 1910	 0	 0
O       -11.6061697495     1.9658365117     14.5470148863       -1	 1657	 141	 0	 0
Si       -5.3125664385     1.1846327840     11.0929566789       -2	 129	 146	 147	 116
O       -4.6535021513     0.0023379638     10.2226778594        -1	 145	 400	 0	 0
O       -5.3780406522     0.7456631913     12.6401708929        -1	 145	 148	 0	 0
Si       -4.6431652332     0.1488499206     13.9415094494       -2	 153	 147	 149	 126
O       -5.5982908053     0.3339642029     15.2246559118        -1	 148	 150	 0	 0
Si       -5.9722222778     1.1072960284     16.5871720187       -2	 124	 149	 151	 152
O       -7.5583662993     1.3699488547     16.6298526450        -1	 150	 1454	 0	 0
O       -5.5406755406     0.2050571058     17.8476708644        -1	 150	 815	 0	 0
O       -4.3451819356     -1.4167704026     13.7238469626       -1	 402	 148	 0	 0
Si       2.6659801933     -5.3986393388     1.4449977341           -23	 66	 155	 156	 157
O       3.4446178625     -3.9911237511     1.4939083715            -1	 154	 210	 0	 0
O       3.0982397502     -6.3015184061     2.7052100438            -1	 154	 300	 0	 0
O       3.0399116659     -6.1719711644     0.0824816273            -1	 154	 966	 0	 0
Si       -8.0220117203     -0.6908818331     5.6739354401       -2	 161	 162	 159	 160
O       -7.0668861482     -0.8759961154     4.3907889777        -1	 378	 158	 0	 0
O       -8.3198594430     0.8758663538     5.8929054218         -1	 188	 158	 0	 0
O       -7.2864551980     -1.2869658167     6.9753391004        -1	 341	 158	 0	 0
O       -9.4077170250     -1.4714670598     5.4293919628        -1	 163	 158	 0	 0
Si       -10.1858091657     -2.8793812242     5.3792389344      -2	 169	 162	 164	 170
O       -11.7717858960     -2.6169699659     5.4228754156       -1	 163	 165	 0	 0
Si       -13.1035337715     -2.3074700115     6.2729573965      -2	 164	 166	 167	 168
O       -13.1861224874     -0.7308076732     6.5864856648       -1	 193	 165	 0	 0
O       -14.3939661626     -2.7539896935     5.4213774427       -1	 1330	 165	 0	 0
O       -13.0652441648     -3.1315900306     7.6544573424       -1	 165	 351	 0	 0
O       -9.8117104020     -3.6529546177     4.0176786824        -1	 163	 380	 0	 0
O       -9.7534140340     -3.7811324277     6.6407587389        -1	 163	 344	 0	 0
Si       0.0464938327     5.7559030026     9.5286489734         -2	 187	 172	 173	 174
O       -1.2542669548     6.2892665793     10.3116647261        -1	 171	 311	 0	 0
O       0.2960801159     4.2081061030     9.8941314553          -1	 171	 288	 0	 0
O       1.3296029507     6.6189472190     9.9689155651          -1	 171	 175	 0	 0
Si       2.2191773379     7.9525136947     9.8238401890         -2	 182	 181	 174	 176
O       1.5602803419     9.1345669468     10.6950748634         -1	 177	 175	 0	 0
Si       1.4775243348     10.7114708531     11.0076472768       -2	 178	 179	 180	 176
O       0.1473376736     11.0208183819     11.8584636804        -1	 177	 320	 0	 0
O       1.4399158315     11.5363201592     9.6262124349         -1	 177	 359	 0	 0
O       2.7681240171     11.1577489670     11.8601830855        -1	 177	 1405	 0	 0
O       2.2846198352     8.3928527191     8.2769776150          -1	 357	 175	 0	 0
O       3.7104103100     7.6597037665     10.3592732556         -1	 183	 175	 0	 0
Si       5.0008427011     8.1062234485     11.2108532095        -2	 185	 186	 182	 184
O       5.0391640241     7.2807339977     12.5920015153         -1	 183	 1216	 0	 0
O       4.9189668049     9.6822456421     11.5240949417         -1	 1405	 183	 0	 0
O       6.3317421820     7.7962357750     10.3597502698         -1	 569	 183	 0	 0
O       -0.1816261811     5.8980459635     7.9421107173         -1	 171	 355	 0	 0
Si       -8.7663717175     2.0783693587     6.8629102217        -2	 130	 195	 189	 160
O       -10.3717424819     2.1147342622     6.9689399473        -1	 188	 190	 0	 0
Si       -11.6718221660     2.6488271260     7.7520208038       -2	 189	 134	 191	 192
O       -11.9221212689     4.1972641703     7.3868248580        -1	 190	 408	 0	 0
O       -12.9562934907     1.7843243354     7.3116240044        -1	 193	 190	 0	 0
Si       -13.8451867746     0.4514871469     7.4567644843       -2	 194	 139	 166	 192
O       -15.3362841718     0.7454249388     6.9226389125        -1	 193	 975	 0	 0
O       -8.2358274005     3.4743203212     6.2576527247         -1	 113	 188	 0	 0
O       -12.5981567307     6.3003553476     -2.9859481346       -1	 114	 706	 0	 0
O       -11.3061241012     6.8162557015     -5.2169569891       -1	 114	 1060	 0	 0
O       -11.1859268820     4.4147440571     -4.1490504154       -1	 114	 285	 0	 0
Si       0.7152030230     5.8411094911     4.0358841984         -22	 209	 81	 69	 200
O       2.1008766114     6.6230641496     4.2807793157          -1	 201	 199	 0	 0
Si       2.8795142805     8.0305797373     4.3296899531         -2	 202	 203	 204	 200
O       2.5049017047     8.8031822757     5.6921409561          -1	 201	 357	 0	 0
O       2.4465736203     8.9327295175     3.0694125396          -1	 233	 201	 0	 0
O       4.4663711217     7.7672867664     4.2867227907          -1	 201	 205	 0	 0
Si       5.7967250742     7.4576976695     3.4368622420         -2	 204	 206	 207	 208
O       5.8792820737     5.8824047630     3.1236856137          -1	 226	 205	 0	 0
O       5.7584037512     8.2831871203     2.0557139361          -1	 205	 240	 0	 0
O       7.0871574652     7.9042173515     4.2884421958          -1	 205	 1325	 0	 0
O       -0.2399542654     6.0275932052     5.3193823008         -1	 355	 199	 0	 0
Si       4.8303231672     -3.2105385244     1.7384518488           -23	 82	 155	 212	 211
O       5.5644857665     -3.8067116505     3.0400769414            -1	 210	 282	 0	 0
O       5.7854487393     -3.3956528067     0.4553053864            -1	 210	 1799	 0	 0
Si       0.5112897191     0.0429930911     9.3101927385         -2	 225	 214	 215	 224
O       0.2125936018     1.6092535589     9.5281417615          -1	 213	 288	 0	 0
O       1.2461651380     -0.5538201796     10.6115312950        -1	 213	 216	 0	 0
Si       1.1800098211     -0.9935190594     12.1586804052       -2	 217	 215	 222	 223
O       2.6717883216     -1.2867275642     12.6928710808        -1	 218	 216	 0	 0
Si       3.9623880039     -0.8404494503     13.5454068895       -2	 217	 219	 220	 221
O       5.2925746652     -1.1497969791     12.6945904860        -1	 218	 1614	 0	 0
O       3.9999965072     -1.6652987564     14.9268417315        -1	 218	 1422	 0	 0
O       3.8797992880     0.7362128880     13.8589351578         -1	 218	 292	 0	 0
O       0.5209455339     0.1887757607     13.0289592247         -1	 290	 216	 0	 0
O       0.2904354338     -2.3270855350     12.3037557812        -1	 324	 216	 0	 0
O       1.4657341878     -0.1428504783     8.0269811723         -1	 213	 272	 0	 0
O       -0.8750966890     -0.7383214227     9.0655841573        -1	 322	 213	 0	 0
Si       6.5381790697     4.7003515109     2.2524509393         -23	 227	 84	 206	 228
O       6.6038205745     5.1390795356     0.7061925801          -1	 226	 372	 0	 0
O       8.0294437582     4.4061721510     2.7875323659          -1	 226	 462	 0	 0
Si       -3.1279255384     10.7152585041     -4.0141243270      -23	 85	 230	 231	 232
O       -1.8439680258     11.5787904396     -3.5728367766       -1	 1321	 229	 0	 0
O       -3.3560455522     10.8574014649     -5.6006625831       -1	 229	 765	 0	 0
O       -4.4285190346     11.2483805128     -3.2301527195       -1	 108	 229	 0	 0
Si       2.2184536066     9.0748724783     1.4828742835         -23	 234	 203	 86	 239
O       1.9688673233     10.6226693780     1.1173918016         -1	 233	 235	 0	 0
Si       2.4994116404     12.0186203405     0.5121343045        -2	 234	 236	 237	 238
O       4.1047824047     11.9822554370     0.4061045789         -1	 1130	 235	 0	 0
O       2.0514737265     13.2224036347     1.4827121767         -1	 235	 1814	 0	 0
O       1.8647446530     12.2400894991     -0.9507717851        -1	 235	 692	 0	 0
O       3.5190471028     8.5417504696     0.6989026760          -1	 233	 240	 0	 0
Si       5.1244178672     8.5053855661     0.5928729504         -2	 241	 242	 207	 239
O       5.6549621842     9.9013365286     -0.0123845467         -1	 1130	 240	 0	 0
O       5.5709301417     7.3028825612     -0.3771318496         -1	 372	 240	 0	 0
Si       -5.2062605721     -7.1768070040     0.6555561053       -23	 244	 245	 246	 72
O       -6.5068540683     -6.6436849954     1.4395277128        -1	 243	 382	 0	 0
O       -5.4343805859     -7.0346640432     -0.9309821508       -1	 243	 388	 0	 0
O       -4.9557941780     -8.7254856164     1.0217079060        -1	 243	 587	 0	 0
Si       -9.5259860352     -2.8022860367     -0.1140205505      -23	 73	 258	 253	 248
O       -11.0172507237     -2.5081066767     -0.6491019772      -1	 249	 247	 0	 0
Si       -12.3076831147     -2.9546263587     -1.5006819310     -2	 250	 251	 252	 248
O       -12.3452916181     -2.1297770525     -2.8821167730      -1	 249	 862	 0	 0
O       -13.6373242476     -2.6456774065     -0.6511079184      -1	 249	 1959	 0	 0
O       -12.2250943989     -4.5312886970     -1.8142101993      -1	 249	 528	 0	 0
O       -8.8664079359     -3.9836100016     -0.9851901210       -1	 254	 247	 0	 0
Si       -8.7838192200     -5.5602723399     -1.2987183893      -2	 257	 253	 255	 256
O       -8.7462107167     -6.3851216461     0.0827164527        -1	 382	 254	 0	 0
O       -7.4527841642     -5.8691321496     -2.1485138342       -1	 388	 254	 0	 0
O       -10.0742516111     -6.0067920219     -2.1502983432      -1	 254	 528	 0	 0
O       -9.5916275401     -3.2410140613     1.4322378086        -1	 380	 247	 0	 0
Si       -3.5310648153     7.3724376667     7.5743744788        -2	 260	 261	 270	 271
O       -4.8214972063     6.9259179848     6.7227945250         -1	 106	 259	 0	 0
O       -3.6143346345     8.9483707179     7.8878376433         -1	 259	 262	 0	 0
Si       -4.2733989217     10.1306655380     8.7581164627       -2	 261	 269	 263	 264
O       -5.7644963189     10.4246033299     8.2239908910        -1	 334	 262	 0	 0
O       -3.3845056378     11.4635027265     8.6129759829        -1	 265	 262	 0	 0
Si       -2.1000343131     12.3280055172     9.0533727822       -2	 266	 267	 268	 264
O       -2.3503334160     13.8764425615     8.6881768364        -1	 265	 984	 0	 0
O       -0.7999546290     11.7939126534     8.2702919257        -1	 265	 359	 0	 0
O       -1.8717470081     12.1856209883     10.6408668932       -1	 265	 320	 0	 0
O       -4.3388731353     9.6916959454     10.3053306768        -1	 313	 262	 0	 0
O       -2.2007108628     7.0628485699     6.7245139301         -1	 355	 259	 0	 0
O       -3.4934563120     6.5475883606     8.9558093208         -1	 259	 311	 0	 0
Si       1.8403467637     -0.9154530168     6.6645301692        -23	 273	 274	 70	 224
O       1.0617090945     -2.3229686045     6.6156195319         -1	 295	 272	 0	 0
O       3.4272036049     -1.1787459877     6.6215630068         -1	 275	 272	 0	 0
Si       4.7575575574     -1.4883350845     5.7717024582        -23	 281	 274	 83	 276
O       6.0479899484     -1.0418154026     6.6232824120         -1	 275	 277	 0	 0
Si       7.5397684490     -1.3350239074     7.1574730876        -2	 276	 278	 279	 280
O       8.1988327362     -2.5173187275     6.2871942681            -1	 1753	 277	 0	 0
O       8.4272678098     -0.0022758614     7.0125540400         -1	 572	 277	 0	 0
O       7.4736131320     -1.7747227872     8.7046221978         -1	 657	 277	 0	 0
O       4.8401462732     -3.0649974228     5.4581741899         -1	 282	 275	 0	 0
Si       5.4997243725     -4.2463213878     4.5870046193           -2	 281	 211	 283	 284
O       4.6101499853     -5.5798878634     4.7320799954            -1	 282	 300	 0	 0
O       6.9902762413     -4.5398606031     5.1223725821            -1	 1753	 282	 0	 0
Si       -10.5268625948     3.2324492370     -5.0193292349      -23	 286	 75	 198	 287
O       -11.4164369820     1.8988827614     -4.8742538589       -1	 618	 285	 0	 0
O       -10.4614200975     3.6727882614     -6.5661918090       -1	 1636	 285	 0	 0
Si       -0.2337513815     2.8115149958     10.4991024163       -2	 289	 173	 214	 127
O       0.4007483147     2.5902874051     11.9610526510         -1	 290	 288	 0	 0
Si       0.4383568180     1.7654380990     13.3424874930        -2	 289	 291	 125	 222
O       1.7289565003     2.2117162130     14.1950233017         -1	 290	 292	 0	 0
Si       3.2200538975     1.9177784210     14.7291488735        -2	 291	 221	 294	 293
O       4.1089471814     3.2506156095     14.5840083936         -1	 1978	 292	 0	 0
O       3.1545796839     1.4788088284     16.2763630875         -1	 978	 292	 0	 0
Si       -0.3239644939     -3.1049232630     6.3707244146       -23	 273	 297	 68	 296
O       -1.2785762538     -2.9188381255     7.6529801260        -1	 322	 295	 0	 0
O       -0.0261484875     -4.6703020181     6.1521060729        -1	 298	 295	 0	 0
Si       0.4203955033     -5.8741744548     5.1817496330        -23	 297	 67	 299	 302
O       2.0257662677     -5.9105393583     5.0757199074         -1	 298	 300	 0	 0
Si       3.3263597639     -6.4436613670     4.2917482998           -2	 283	 156	 299	 301
O       3.5766271505     -7.9907289795     4.6572958856            -1	 1570	 300	 0	 0
O       -0.1094359940     -7.2707655620     5.7867205939        -1	 298	 303	 0	 0
Si       0.1408313926     -8.8178331745     6.1522681797        -2	 305	 306	 302	 304
O       -1.1438072234     -9.6820943972     5.7109155255        -1	 1218	 303	 0	 0
O       0.3689514063     -8.9599761353     7.7388064358         -1	 1431	 303	 0	 0
O       1.4414248888     -9.3509551832     5.3682965722            -1	 1570	 303	 0	 0
Si       -1.3339053162     4.0436609167     -6.8772872763       -23	 308	 76	 309	 310
O       -2.1127102765     2.6363868969     -6.9271537685        -1	 105	 307	 0	 0
O       0.2534653371     3.7813388009     -6.9211451897         -1	 307	 1807	 0	 0
O       -1.7670132676     4.9460522648     -8.1385205447        -1	 307	 843	 0	 0
Si       -2.8594704279     6.3253899149     10.4186503065       -2	 115	 172	 271	 312
O       -3.3060144188     7.5292623515     11.3890067464        -1	 313	 311	 0	 0
Si       -3.6039977164     9.0948826746     11.6066692332       -2	 314	 269	 319	 312
O       -4.5591232884     9.2799969569     12.8898156957        -1	 313	 315	 0	 0
Si       -4.9337675806     10.0539689272     14.2526183386      -2	 314	 316	 317	 318
O       -4.1549626203     11.4612429469     14.3024848309       -1	 939	 315	 0	 0
O       -6.5199116021     10.3166217534     14.2952989649       -1	 315	 728	 0	 0
O       -4.5015080238     9.1510898599     15.5128306483        -1	 315	 1819	 0	 0
O       -2.2190052313     9.8761080460     11.8514992467        -1	 313	 320	 0	 0
Si       -1.4402002710     11.2833820657     11.9013657389      -2	 321	 178	 268	 319
O       -1.8141317435     12.0567138913     13.2638818458       -1	 939	 320	 0	 0
Si       -1.6539016493     -2.1455954424     9.0157176651       -2	 225	 331	 323	 296
O       -1.2209609892     -3.0477452226     10.2759950786       -1	 322	 324	 0	 0
Si       -0.9926736842     -3.1901297514     11.8634891895      -2	 330	 323	 325	 223
O       -0.7430874009     -4.7379266511     12.2289716715       -1	 324	 326	 0	 0
Si       -1.2729188983     -6.1345177583     12.8339426325      -2	 329	 325	 327	 328
O       -2.8782896627     -6.0981528548     12.9399723580       -1	 404	 326	 0	 0
O       -0.6384192022     -6.3557453489     14.2958928672       -1	 1466	 326	 0	 0
O       -0.8265739150     -7.3367791952     11.8629819776       -1	 326	 1888	 0	 0
O       -2.2934344716     -2.6567661748     12.6465049422       -1	 402	 324	 0	 0
O       -3.2400456709     -1.8829426162     9.0583982914        -1	 322	 400	 0	 0
O       -7.2030173853     5.8858015820     6.3327233705         -1	 113	 106	 0	 0
O       -6.9723399941     8.4014213097     7.0588826688         -1	 106	 334	 0	 0
Si       -7.0550960012     9.9783252160     7.3714550823        -2	 333	 336	 335	 263
O       -7.0927045045     10.8031745221     5.9900202403        -1	 107	 334	 0	 0
O       -8.3845698428     10.2870326002     8.2219849497        -1	 337	 334	 0	 0
Si       -9.9728206070     10.5502364286     8.2651735444          -2	 338	 339	 340	 336
O       -10.7509127477     9.1423222642     8.2150205160           -1	 337	 410	 0	 0
O       -10.3467520795     11.3235682542     9.6276896512          -1	 337	 1155	 0	 0
O       -10.4050484475     11.4517460641     7.0046095948          -1	 337	 369	 0	 0
Si       -7.3526105150     -1.7266646965     8.5224882106       -2	 161	 131	 342	 343
O       -5.8613458265     -2.0208440564     9.0575696373        -1	 341	 400	 0	 0
O       -8.2421849022     -3.0602311721     8.6675635867        -1	 341	 344	 0	 0
Si       -9.5252940202     -3.9232753885     8.2272969950       -2	 345	 170	 350	 343
O       -9.2757077370     -5.4710722882     8.5927794769        -1	 346	 344	 0	 0
Si       -9.8055392344     -6.8676633954     9.1977504379       -2	 345	 347	 348	 349
O       -11.4109099987     -6.8312984919     9.3037801635       -1	 346	 1229	 0	 0
O       -9.1717206416     -7.0896202731     10.6596355687       -1	 346	 1574	 0	 0
O       -9.3591942510     -8.0699248323     8.2267897830        -1	 346	 1556	 0	 0
O       -10.8260548077     -3.3899118118     9.0103127476       -1	 351	 344	 0	 0
Si       -12.4312582808     -3.3537884763     9.1172983281      -2	 138	 350	 352	 168
O       -12.9612570694     -4.7501380155     9.7213134342       -1	 1229	 351	 0	 0
O       -3.1997194640     0.2895412025     -7.3896462688        -1	 105	 1146	 0	 0
O       -4.2332592839     2.4512455092     -8.4733874423        -1	 105	 1650	 0	 0
Si       -0.6147341325     6.8004373116     6.6808774489        -2	 209	 187	 356	 270
O       0.1640708278     8.2077113314     6.7307439412          -1	 355	 357	 0	 0
Si       1.5504572359     8.9890258452     6.9753525224         -2	 202	 356	 181	 358
O       1.2519284099     10.5550447450     7.1942574002         -1	 357	 359	 0	 0
Si       0.8060972387     11.7582770370     8.1643273040        -2	 179	 267	 358	 360
O       1.3352476327     13.1541388571     7.5592912392         -1	 476	 359	 0	 0
O       -6.6677083918     11.5067022941     -4.5860081248       -1	 108	 1244	 0	 0
O       -6.4804337899     12.4886178530     -2.1537665540       -1	 1058	 108	 0	 0
O       -7.1973727033     12.4209932200     3.9230990446        -1	 107	 364	 0	 0
Si       -7.4469589865     13.9687901196     3.5576165627       -2	 363	 365	 366	 367
O       -8.7475524828     14.5019121283     4.3415881702           -1	 993	 364	 0	 0
O       -6.1638498685     14.8318343360     3.9978831544        -1	 364	 1006	 0	 0
O       -7.6750790003     14.1109330805     1.9710783066        -1	 1873	 364	 0	 0
O       -9.3325749650     11.0607670163     4.6340997312        -1	 369	 107	 0	 0
Si       -10.6324873579     11.5946183121     5.4181364425         -2	 370	 371	 340	 368
O       -10.8827547445     13.1416859246     5.0525888568          -1	 369	 993	 0	 0
O       -11.9171259739     10.7303570894     4.9767837883          -1	 369	 392	 0	 0
Si       5.8687778644     5.7361343743     -0.5961018312        -23	 242	 227	 373	 87
O       6.8240707277     5.5507785240     -1.8782924388         -1	 372	 574	 0	 0
Si       5.0349175744     2.5883071627     -3.5357915874        -23	 377	 376	 375	 88
O       5.3321880524     1.0233269842     -3.7531675381         -1	 374	 1648	 0	 0
O       6.4199100595     3.3695325340     -3.2909615740         -1	 574	 374	 0	 0
O       4.3000421555     3.1851204334     -4.8371301439         -1	 452	 374	 0	 0
Si       -6.6929546757     -1.6493279410     3.0282728708       -22	 74	 379	 159	 71
O       -7.4708795252     -3.0574836734     2.9790756974        -1	 378	 380	 0	 0
Si       -8.8565848299     -3.8380689000     2.7345322200       -2	 169	 258	 379	 381
O       -8.5587688235     -5.4034476552     2.5159138783        -1	 380	 382	 0	 0
Si       -8.1122248327     -6.6073200918     1.5455574384       -2	 383	 244	 381	 255
O       -8.6422553376     -8.0023001993     2.1499241844        -1	 1633	 382	 0	 0
Si       -2.3730728330     -4.9023718374     -4.5424470601      -23	 385	 386	 387	 77
O       -2.8054679648     -4.0006206339     -5.8039668646       -1	 593	 384	 0	 0
O       -0.7857021797     -5.1646939532     -4.5863049736       -1	 538	 384	 0	 0
O       -3.1518777934     -6.3096458571     -4.5923135524       -1	 961	 384	 0	 0
Si       -5.8666401427     -6.1317849759     -2.1911944605      -23	 389	 245	 78	 256
O       -5.4921631417     -6.9055153781     -3.5549529583       -1	 961	 388	 0	 0
O       -12.0260766480     5.8144427235     5.3196171262        -1	 112	 408	 0	 0
O       -12.1469549705     8.2152250808     4.2516454487        -1	 112	 392	 0	 0
Si       -12.8060192577     9.3975199010     5.1219242682          -2	 393	 394	 371	 391
O       -14.2971166550     9.6914576929     4.5877986964           -1	 1196	 392	 0	 0
O       -12.8721745747     8.9578210211     6.6690733784           -1	 410	 392	 0	 0
O       -13.3547986457     6.1920430606     3.0865372265        -1	 396	 112	 0	 0
Si       -14.8460633342     6.4862224205     2.5514557999       -2	 395	 397	 398	 399
O       -15.7356377214     5.1526559449     2.6965311759        -1	 1387	 396	 0	 0
O       -14.7799080172     6.9259213003     1.0043066897        -1	 396	 744	 0	 0
O       -15.5049603302     7.6682756726     3.4226904743           -1	 396	 1196	 0	 0
Si       -4.5702323321     -1.5735950873     9.9092146950       -2	 401	 146	 331	 342
O       -4.5326238288     -2.3984443935     11.2906495369       -1	 402	 400	 0	 0
Si       -3.8986379448     -2.6206428392     12.7534905227      -2	 153	 330	 403	 401
O       -4.4286367334     -4.0169923784     13.3575056288       -1	 402	 404	 0	 0
Si       -4.1783693468     -5.5640599910     13.7230532145      -2	 403	 405	 406	 327
O       -3.9507631452     -5.7071738069     15.3104822217       -1	 546	 404	 0	 0
O       -5.4628406715     -6.4285627816     13.2826564152       -1	 467	 404	 0	 0
O       -9.7867199996     5.5558793742     6.6764283864         -1	 113	 408	 0	 0
Si       -11.3920907640     5.5922442778     6.7824581119       -2	 409	 407	 390	 191
O       -11.8386347548     6.7961167144     7.7528145519        -1	 410	 408	 0	 0
Si       -12.1366180524     8.3617370376     7.9704770387          -2	 409	 394	 411	 338
O       -13.0917436245     8.5468513199     9.2536235011           -1	 410	 1486	 0	 0
O       -19.1627025733     -12.9208325971     0.1305992941      -1	 1585	 1850	 0	 0
O       -16.8025842205     -3.1865462605     19.2450750619      -1	 1379	 1588	 0	 0
O       -5.4981583429     22.0750322709     17.0881133842          -1	 1426	 1096	 0	 0
Si       -4.8316777981     -18.8061551743     -3.6912781313        -2	 1258	 2125	 1786	 1639
O       0.8232375605     8.9165993409     22.2299291781         -1	 1609	 1864	 0	 0
O       0.3967303886     -9.5668066840     -6.4748972340           -1	 705	 1459	 0	 0
O       6.0630353535     11.3884681047     -9.5891768575        -1	 1424	 1000	 0	 0
O       2.3742974508     6.8347987199     21.8121093713         -1	 1609	 1709	 0	 0
O       5.3807425427     -5.5765002201     -0.9561213578           -1	 966	 1799	 0	 0
O       -10.2987534927     4.2120249151     -11.7740434205      -1	 638	 1927	 0	 0
O       -12.7044516855     13.5400764966     15.7927048807         -1	 1722	 1956	 0	 0
O       -3.2789235027     4.2244217222     -10.1653904963       -1	 1650	 843	 0	 0
Si       -1.6967277450     15.6705847865     -2.5341701687      -2	 481	 1177	 982	 1640
Si       2.5596852386     1.8410818102     20.2236507494        -2	 746	 683	 581	 1118
O       -19.9450393920     13.3228312135     9.9255038316          -1	 1820	 1510	 0	 0
O       5.4597520259     3.4328570730     21.8194643793         -1	 1411	 832	 0	 0
Si       -6.0157611931     18.9241164021     5.0375707210          -2	 1185	 778	 1751	 1817
O       -5.5865420046     -16.1831743713     -6.2220907946         -1	 1884	 734	 0	 0
Si       -7.9886496666     -6.2081579742     -9.0724228207      -2	 1795	 1159	 1974	 1839
O       -21.2194904727     9.9943115281     7.0298139056           -1	 1849	 1087	 0	 0
O       10.9380706817     -12.2040108681     7.4649407822          -1	 1779	 1894	 0	 0
O       -0.4400825546     3.9892567844     21.4296550888        -1	 1651	 1484	 0	 0
Si       -16.2640297089     -11.3291464768     1.7266343563     -2	 1132	 1501	 958	 951
O       -16.1583493063     10.0489190428     15.3244903377         -1	 507	 1357	 0	 0
O       8.3190299554     -4.9188303719     7.3551008418            -1	 1753	 945	 0	 0
O       0.8575413357     14.8440787176     5.6072705012         -1	 476	 1253	 0	 0
O       3.6806142460     -9.6092769645     6.7241519775            -1	 1570	 469	 0	 0
O       -13.8050471368     -7.2279328819     -9.7747394207      -1	 1353	 447	 0	 0
Si       0.2471372590     -17.1792729625     -4.2851323939         -2	 1610	 1408	 1327	 1112
O       -12.5390423115     -14.2199173914     -1.8967979128     -1	 1044	 1773	 0	 0
O       -5.3744491305     12.0229333585     -6.8181942665       -1	 1244	 765	 0	 0
O       -18.2441982756     17.3549678132     2.2449439602          -1	 1203	 829	 0	 0
O       -3.4143736365     10.9869487067     -8.2233909996       -1	 1844	 765	 0	 0
O       -2.6870937467     -6.9799579899     22.5993870828       -1	 1612	 789	 0	 0
O       5.7264395516     -3.2668348522     -2.1674881339           -1	 1799	 1952	 0	 0
Si       -13.0701717178     -7.8247461526     -8.4734008643     -2	 553	 906	 439	 1511
O       -7.0967224306     -1.3539195670     -12.4459296447      -1	 1617	 1237	 0	 0
Si       -3.8813577335     5.0182404274     20.9141632788       -2	 1322	 1428	 1735	 912
Si       -14.3992287624     -6.8663000448     -5.8277382950     -2	 1762	 1739	 906	 1899
Si       -14.5483815292     18.1909707650     1.4013785264         -2	 1362	 1266	 893	 1471
Si       4.3655163691     3.6240900261     -6.3843443579        -2	 377	 1971	 931	 540
O       -14.0003068875     1.5692021216     -4.5315046979       -1	 618	 1883	 0	 0
Si       9.6182816855     15.4350813938     10.8300009518       -2	 1041	 1202	 1246	 1615
O       5.7736999386     13.1214857674     21.9020520928        -1	 1729	 458	 0	 0
O       -2.1538335512     -19.2334991257     -6.1678177205         -1	 1966	 1447	 0	 0
Si       -24.2437128318     8.1112608245     10.7176551671         -2	 913	 774	 1598	 944
Si       5.6911112228     14.6981481057     22.2155803611       -2	 674	 533	 2014	 455
O       0.6272404886     -7.0509453883     -5.7496937906           -1	 538	 1459	 0	 0
O       8.9293507247     -8.8336610470     -2.8387050394           -1	 842	 821	 0	 0
O       -10.7925815508     -12.7271651817     8.9755989550      -1	 610	 1285	 0	 0
Si       9.3198761492     4.8526918329     3.6391123198         -2	 1667	 228	 1236	 1040
Si       -8.5924323698     13.3841971536     16.3298573524         -2	 723	 1836	 1270	 1532
Si       -18.4617347365     -7.9999711501     16.1795385024     -2	 2093	 1552	 1879	 1992
O       -22.6370003014     -12.8121378535     6.3527537240      -1	 1345	 773	 0	 0
O       -4.0798205603     23.9934770230     13.5071925993          -1	 595	 1512	 0	 0
Si       -6.3517339554     -7.7613999701     13.4277968951      -2	 1346	 1205	 406	 1605
O       -9.5880360184     8.0362561059     -18.0261273507       -1	 1515	 526	 0	 0
Si       3.7182227493     -10.4341262706     8.1055868194          -2	 1153	 635	 438	 512
Si       -12.0462376488     14.2779337283     12.0998108953        -2	 1482	 1875	 749	 872
O       5.4653480066     14.5419635656     18.4012346296        -1	 919	 607	 0	 0
O       -9.6970423840     3.9978253750     20.2115601427        -1	 1537	 1581	 0	 0
O       -22.7571975206     -10.4106262091     5.2848471503      -1	 773	 878	 0	 0
O       -8.2137317794     -6.3636132272     -12.8867034484      -1	 1565	 656	 0	 0
O       10.8172401712     9.1259983562     11.9131698095        -1	 1268	 1700	 0	 0
Si       1.0856613495     14.7019357567     7.1938087572        -2	 729	 437	 1982	 360
Si       -10.0802270306     -10.1184622285     -13.3991275447   -2	 2041	 882	 606	 1199
O       14.1870687081     10.6335113106     3.6246983989        -1	 563	 1638	 0	 0
O       11.6907915416     13.4892246327     0.4541901227        -1	 1646	 991	 0	 0
O       -22.4502712279     -11.8298237179     8.7862376858      -1	 1345	 1843	 0	 0
O       -0.4062953540     16.1171044685     -1.6825902149       -1	 698	 424	 0	 0
O       2.2824539529     -2.8856977374     27.7347697021        -1	 545	 1776	 0	 0
Si       2.2871813354     -14.2679754821     -1.7146639256         -2	 825	 1996	 1382	 527
O       6.7077506395     -13.3775810702     1.3847274371           -1	 1033	 1220	 0	 0
O       0.5359909390     12.6190592680     -3.1835000448        -1	 1321	 692	 0	 0
O       -2.4542887951     15.4936211147     6.6209691046        -1	 710	 984	 0	 0
O       -0.5328053507     -13.5961957851     -4.4828252519         -1	 1275	 686	 0	 0
O       -1.7197528806     21.3343728844     15.9310196821          -1	 1037	 999	 0	 0
O       3.6953649049     -4.7705797408     26.5717325251        -1	 545	 585	 0	 0
O       6.2879007715     7.3691377624     -6.4543490881         -1	 745	 800	 0	 0
O       -17.8985012667     19.6646331811     1.0335771841          -1	 1203	 1214	 0	 0
O       -4.9623189709     -15.2597955417     3.4306629131          -1	 1081	 594	 0	 0
O       8.8452000923     -16.0057883010     -2.1958027734          -1	 1175	 1048	 0	 0
Si       -21.2442911222     -7.0310805523     6.4506037216      -2	 602	 1092	 719	 1415
O       11.4068720167     4.6514150231     -3.2832335900           -1	 1593	 1741	 0	 0
Si       8.0047425383     -8.1698940259     15.2812251493          -2	 874	 699	 551	 1939
O       -6.1417055461     0.4199859330     -14.1378675949       -1	 1617	 1193	 0	 0
O       9.7191255264     20.6999967731     13.1598156588        -1	 1125	 1519	 0	 0
O       -7.6516037203     -8.3506367451     22.5527344081       -1	 1329	 1094	 0	 0
Si       -1.7300897987     21.1878609276     12.2121880921         -2	 1235	 1144	 519	 1272
O       7.8942011339     -5.6225997118     17.9320850617        -1	 796	 557	 0	 0
O       12.3341129045     -11.2769136847     11.4283158496         -1	 579	 1568	 0	 0
O       -2.2668469019     16.4752951056     9.0541665303        -1	 1488	 984	 0	 0
Si       -14.7780484250     -16.8559853952     -0.6457958731    -2	 977	 2051	 879	 1696
O       13.7818674028     -0.8427784994     -0.4842074284          -1	 1107	 1174	 0	 0
O       -4.1718313495     14.2732221336     19.4288970753          -1	 1337	 718	 0	 0
Si       -16.4563326039     11.6145393660     15.5421528245        -2	 435	 1003	 2140	 1823
O       -9.6061630957     10.8492740139     -12.8981861793      -1	 696	 544	 0	 0
Si       -3.8946000638     19.0000016812     11.9177781225         -2	 1114	 803	 1039	 1235
O       -12.0406600157     0.9755039318     -14.5270075666      -1	 633	 584	 0	 0
Si       -19.0970501568     -13.6038232115     6.9255933766     -2	 1025	 621	 2054	 1101
O       3.8009787564     -12.0110301769     7.7930144060           -1	 1889	 469	 0	 0
O       7.3527826216     19.5552864371     13.1528512251        -1	 1186	 1519	 0	 0
Si       -18.3381595704     -7.6008090325     5.5615582433      -2	 1921	 1135	 719	 575
Si       -5.6823327501     -8.7971828335     16.2763496655      -2	 1945	 1443	 1605	 1240
O       3.5744865824     -2.3697973834     25.5037608476        -1	 545	 1672	 0	 0
O       11.9772381985     -3.2579781140     5.1301005660           -1	 1050	 947	 0	 0
O       -12.5812880015     3.4883761608     -8.1123603790       -1	 1636	 1460	 0	 0
O       -2.0281048126     22.7548506826     12.4302022188          -1	 500	 1512	 0	 0
O       -11.3379210096     -4.7340078390     -9.4392032043      -1	 1962	 1868	 0	 0
O       10.0920205671     9.8685942965     14.3305977392        -1	 1834	 1268	 0	 0
O       -10.7723763219     12.4373088392     -16.1364229070     -1	 1134	 990	 0	 0
O       0.2391811715     20.7413148392     5.9358033495         -1	 1765	 743	 0	 0
Si       -18.0586063713     -3.5354316737     -3.7502127451     -2	 1642	 1661	 750	 2184
Si       19.3898328539     2.1799655325     -1.6830977558          -2	 2070	 613	 1182	 1047
Si       -10.9196166027     8.3455144923     -17.1750895149     -2	 841	 899	 2036	 468
O       3.1760746193     -12.9351382936     -1.8598044055          -1	 483	 998	 0	 0
Si       -11.5661974029     -5.7133419491     -2.6854448737     -2	 257	 252	 1917	 1464
O       13.7091634036     12.3250621709     1.6720734460        -1	 563	 991	 0	 0
O       -8.1878253131     12.7677187660     -16.4791069641      -1	 1061	 1134	 0	 0
O       7.7469181563     -4.4315483161     -0.9501127790           -1	 1147	 1799	 0	 0
O       1.3095332995     9.9140229365     -14.3827492902        -1	 1708	 655	 0	 0
O       4.3614700899     15.0070970579     23.0651543737        -1	 458	 1452	 0	 0
O       -14.5601716762     7.3366494336     -1.5792875782       -1	 706	 744	 0	 0
O       -7.5460215852     -15.5897177494     3.7743679290       -1	 594	 604	 0	 0
O       4.2359928907     -7.2834519698     20.1570853375        -1	 1566	 1718	 0	 0
Si       -17.7895948207     -9.0474174786     19.0225719391     -2	 1210	 1830	 2090	 1552
Si       0.5446517728     -5.4742830500     -5.4361655223          -2	 1602	 386	 459	 766
O       9.8252531900     13.4605171920     -5.6197932113        -1	 1273	 955	 0	 0
O       2.8742516807     3.9182693860     -6.9194257846         -1	 452	 1807	 0	 0
Si       6.0733722716     11.5349800614     -5.8703452675       -2	 726	 1766	 1777	 1590
O       -12.4250871132     -6.5684972540     14.2973700835      -1	 1490	 907	 0	 0
O       12.0183614732     18.6119079086     4.3707645180        -1	 1257	 1675	 0	 0
Si       -10.9911555808     10.0680486426     -13.1430161927    -2	 1631	 508	 559	 708
Si       3.6120950857     -3.1946466896     26.8851956896       -2	 489	 482	 516	 2002
Si       -3.5178224850     -6.6093235871     16.5707596352      -2	 850	 1443	 405	 1053
O       -1.8406312031     23.7351552417     14.8630480046          -1	 1037	 1512	 0	 0
O       -10.4461717222     -10.4181399585     7.7639456428      -1	 610	 1556	 0	 0
Si       -9.9292816917     -7.2665839450     19.8147748421      -2	 629	 1166	 1647	 1208
Si       -5.6093998490     -10.5196278414     12.2440549111     -2	 1346	 1643	 682	 1767
O       7.7060464210     -6.6036335581     15.4991741722           -1	 557	 496	 0	 0
O       -9.7853782336     -15.3311544002     2.4175566688       -1	 604	 853	 0	 0
O       -11.6837853097     -7.0434316389     -8.2287922831      -1	 1868	 447	 0	 0
O       -7.5131252152     14.6508098788     -3.2364867688       -1	 1058	 1085	 0	 0
Si       6.5006009321     -10.2810566614     9.4923133038          -2	 1153	 1746	 768	 680
O       0.2626564515     -1.7202549863     26.5174594511        -1	 1271	 1776	 0	 0
Si       7.2602152498     -5.4004012661     16.4692440760       -2	 1314	 652	 501	 551
O       4.3776577158     12.1943885840     17.9386770254        -1	 1297	 919	 0	 0
O       -11.7267121031     10.6641326262     -14.4444198531     -1	 990	 544	 0	 0
Si       15.4405657173     15.4153127654     0.7052501472       -2	 2025	 1715	 1470	 1840
O       -2.1612647668     9.2362141012     -9.7241999489        -1	 1844	 1304	 0	 0
O       -9.9055754527     -12.9296427557     1.3496500951       -1	 653	 853	 0	 0
Si       13.9372834173     12.1829192100     3.2586117021       -2	 529	 1863	 478	 926
Si       -13.8068958173     15.4322551746     0.2166155837         -2	 1266	 1907	 1292	 570
O       -6.3115943176     -15.4408199989     -3.8037070100         -1	 1163	 1884	 0	 0
O       -0.1088044832     7.9955781844     -10.8018285053       -1	 1758	 1304	 0	 0
Si       -19.1650967823     9.7397540360     10.1231966896         -2	 1929	 809	 716	 1713
Si       -9.0410595138     -1.1724294745     -15.7339677609     -2	 986	 1483	 980	 2038
Si       7.9185673069     7.5343122358     10.3171347474        -2	 1626	 186	 954	 1412
O       -12.3156311289     15.1380758147     0.7516970104          -1	 1402	 564	 0	 0
Si       -17.2989920535     1.3452237216     3.2267180272       -2	 1121	 1954	 1111	 1664
Si       9.7119064258     0.8619853613     7.4539066943         -2	 1323	 1596	 279	 1928
O       11.5730775303     -5.4392241040     3.7174314309           -1	 947	 1392	 0	 0
Si       7.1987150199     4.7768065538     -3.2410950817        -2	 1771	 1316	 373	 376
O       -17.8916472959     -8.8033120373     4.5915534433       -1	 514	 1572	 0	 0
O       -18.8792051243     10.5901810491     5.9924533115          -1	 1571	 1087	 0	 0
O       7.8900159166     -17.7794522330     -0.5048206782          -1	 687	 1175	 0	 0
Si       6.1635853840     17.4514183202     -1.7419672658       -2	 1809	 2026	 1179	 1448
Si       12.9931771917     -12.4592085048     10.5580370301        -2	 1038	 502	 1319	 2080
O       -19.9185082161     1.6430204313     8.3259860329           -1	 1621	 623	 0	 0
O       2.9926258988     0.9389320300     21.4839281629         -1	 425	 1119	 0	 0
O       15.2989085078     6.4130728261     -0.8660710517           -1	 1378	 856	 0	 0
O       6.4982067231     12.3795299717     19.4849106992        -1	 1729	 919	 0	 0
Si       -12.6997243029     2.1577987519     -13.6567287471     -2	 1794	 510	 2110	 1079
Si       4.3542619009     -5.9526329929     25.7004978507       -2	 489	 1082	 1493	 2007
O       8.6799580096     11.7539640190     15.4946558750        -1	 1834	 738	 0	 0
Si       -5.4858246829     -10.1204657238     1.6260746520      -2	 1569	 1508	 669	 246
O       -1.5510767222     14.4115221506     19.4309681204          -1	 971	 718	 0	 0
O       5.5055386385     16.7133195204     1.9518825745         -1	 1916	 1276	 0	 0
O       -19.2652387152     5.5959171511     -0.5481569951          -1	 1893	 1479	 0	 0
Si       -22.8244426748     13.0692529753     12.2003705995        -2	 1372	 1901	 2143	 1984
O       -7.5687840455     6.8712119315     -16.8075747087       -1	 1385	 1515	 0	 0
[...]
 1901      O     -23.2567022317    13.9721320426    10.9401582899
 1902      O     -12.0564182405   -11.4541394308     1.6857382390
 1903      O     -13.3705568705    -6.2376003020    19.2992830321
 1904      O       2.0012896775   -15.1184024951     2.4160794524
 1905      O     -21.0881622880     5.9939770126    10.1931363159
 1906      O     -13.0667532221    17.7556853118    11.9123732050
 1907      O     -14.6964702045    14.0986886990     0.3616909598
 1908      Si     -2.1381470675    -3.7747227175    24.6357299793
 1909      Si     -2.0998561102    11.2060453102    17.3955810787
 1910      Si    -13.0855724569     5.3321425422    14.4336952565
 1911      O      11.1311880839    18.8146270506    11.9957575231
 1912      Si    -25.9551875557     0.2129159669    10.2085060917
 1913      Si     18.3506653370    -6.7660672216     0.6517424603
 1914      O      -4.9890966430    17.0164679694    -0.2776490636
 1915      O       9.9685182415     0.1123717071    -5.1735452556
 1916      Si      3.9186817974    16.9766124914     1.9948497369
 1917      O     -12.4556044989    -7.0471499927    -2.5394136427
 1918      O     -20.5593780874     5.0805677993     1.6833598278
 1919      Si     -0.7243858649    -7.5797567727    26.2953079682
 1920      O     -15.3066236826    18.0132778060    10.5564526959
 1921      O     -17.7043409776    -7.8227659102     7.0234433742
 1922      O     -18.1305566764   -15.0826260463     1.2145618999
 1923      O      10.0781183027     5.0303847919    -5.5159618497
 1924      Si     13.5668250908     3.3220929444     0.1006871432
 1925      Si     -5.5921196377    -2.8807445748    20.4047276673
 1926      O      -7.6194201699    21.8905310278    15.5421662465
 1927      Si    -10.5270407977     4.3544094440   -13.3615375314
 1928      O      11.0124999220     0.3288633526     6.6699350867
 1929      O     -19.0996225687    10.1787236287     8.5759824756
 1930      O       0.0224060028   -11.2701292224     8.9491522532
 1931      O     -18.4388768921   -13.6635176799    -2.2866072033
 1932      O      -4.0229533322     7.4616377185    17.4658723450
 1933      Si     16.1786946514    -8.9633180583     0.3562647086
 1934      O     -19.6554531948     3.9978286905    14.4930723074
 1935      O     -15.8620023274    15.6874528113    -2.8764806641
 1936      O      -1.9142642058    -9.6843541768    11.4004243735
 1937      O       3.1482708836    -9.6296575196    19.6948793733
 1938      O     -15.2003287278    10.7735566570    -8.2222003193
 1939      O       8.9591870070    -8.3557375953    13.9980135830
 1940      O      -1.3590528523    -7.3582876141    24.8324018786
 1941      O      15.3308727074    17.9630947986     3.3571310184
 1942      O      -2.3177437707   -11.8648708796     9.9878203421
 1943      O      -9.4222525807    12.6188210155    -8.9010320252
 1944      Si     11.4121346165     8.7637253744     7.9658821477
 1945      O      -5.3843494525   -10.3628031566    16.0586871787
 1946      Si      4.6519437059     5.7521153516    24.5504205773
 1947      O       2.7048627027    10.8417602645   -10.4190876868
 1948      Si    -12.9972388167    -9.5471911606   -12.5056956187
 1949      O     -13.9070694666    11.2897877214   -10.4543864610
 1950      Si     -6.9050948399   -15.0784578747     0.1433592196
 1951      O      -5.6583686554     3.1851237489   -10.5556179792
 1952      Si      5.4990006412    -3.1239626042    -3.7539612862
 1953      O     -21.7180300037    -1.4645934550     2.9500069342
 1954      O     -16.8524797790     0.1427207167     2.2567132272
 1955      Si      5.2983889312    19.8098439292    10.0594684412
 1956      Si    -11.3748105527    13.2311275444    14.9431308681
 1957      Si     -9.8957523468   -12.7841016541     5.0693724362
 1958      O     -23.5844394545     8.8496903346     7.0226280397
 1959      Si    -15.2248621921    -2.3831137227    -0.6082058599
 1960      O       9.8899635898     4.0493509457    -7.9488727393
 1961      Si    -20.2993047857    17.6101654500    -0.8481522877
 1962      Si    -11.5662083145    -4.5916233101   -11.0266973153
 1963      O       7.7838882530   -10.5399726520    18.2747881920
 1964      O       9.8843676092    -7.0597555469    -4.5306429896
 1965      O      -4.6190338473    12.1309149350   -12.8895023404
 1966      Si     -2.5867742114   -18.3313493455    -7.4280951340
 1967      Si    -11.6603785832     9.9818712990    -7.6493606667
 1968      O     -18.2860343700    -4.5142780647     3.0045665443
 1969      O     -16.0522216427     2.8094394618    -3.4551185324
 1970      Si    -19.2033560232    -5.2423834235    17.3629939502
 1971      O       5.0244133651     2.4420367740    -7.2555790323
 1972      O      -4.5473744878    -7.2371416172    -8.5569310107
 1973      Si    -20.9458855859     3.5513090086    13.6414923536
 1974      O      -9.3182907994    -5.8992090221    -8.2228488081
 1975      Si     11.7909334745    17.6330615176    11.1255438074
 1976      O     -15.7299930393    11.6878475829     0.2869068500
 1977      O     -12.5555736683     6.7284920814    13.8296801505
 1978      Si      5.3934185061     4.1151184002    15.0244051930
 1979      O      -1.3729551167   -12.1964971186     4.9858422897
 1980      O       1.4415425875     5.9144177080   -11.2193617761
 1981      Si     -7.1786711673     9.5791630984    17.9894353413
 1982      O      -0.2149321467    15.2350577654     7.9777803648
 1983      O     -11.8886658882    10.1242558279    -9.2368547777
 1984      O     -23.6032476352    11.6619789555    12.1505041073
 1985      O       9.6124565079    -4.4028408755     5.1238705550
 1986      O      12.6387445068    -8.1716327003    -0.2165749441
 1987      Si      9.0633486752     9.2398945538   -10.7964235879
 1988      O      -4.0065892667   -13.4865301863     1.7384384269
 1989      O     -10.2523732166    20.6012272473    12.2948274875
 1990      O      17.3834164090    -4.1635361713    -1.9778403285
 1991      O       6.6884850190    12.3121776447     0.0623995631
 1992      O     -18.5437779239    -6.4237073884    16.4918243797
 1993      O     -16.3598607551     4.2292771153    -6.9562225318
 1994      Si    -15.3309898556     4.8563658583    18.1714030103
 1995      Si    -11.2859631004    -1.6472353032   -11.9971507582
 1996      O       0.7959166470   -13.9737961221    -2.2497453523
 1997      O      -0.5182219830    -8.7572569934    15.3637994408
 1998      O      -2.1871395169    -9.8964873238    -6.1321480730
 1999      Si    -12.3209254450    11.0271348951   -10.4970670873
 2000      Si      7.5773465865    13.6463842650    -0.0823892769
 2001      O     -10.7362099008    -4.9482073791    22.5464003588
 2002      H       4.6498409448    -2.8358861289    27.5694620062
 2003      H       0.3943264376    -2.0013547420    28.8724906488
 2004      H      -2.2356546612    -4.6620799964    28.5149329037
 2005      H      -1.1501462855    -8.7009106570    26.7811464517
 2006      H       2.3824464169    -9.3941957515    25.6989243966
 2007      H       5.5510269091    -6.1886161884    26.1302552784
 2008      H      -1.1971999640     4.2845929023    26.1803792237
 2009      H       1.4334939544     6.9446780120    26.5376504326
 2010      H       6.5901944259     2.7574165657    23.7954150622
 2011      H       5.6890084616     6.1101466252    25.2346217901
 2012      H      -0.1580324472    13.2306256564    23.8455390075
 2013      H       2.4726614712    15.8907107661    24.2028102164
 2014      H       6.7274631588    15.0568195239    22.9000681100
 2015      H       7.6293619428    11.7034493197    21.4605748460
 2016      H       5.4447634438    16.8653788867    18.8863568009
 2017      H      11.0471777103    11.8040171955    15.3283923241
 2018      H      -5.0207913479    24.1035978831    18.2317778057
 2019      H      -0.7659896604    23.2697066409    16.9290356993
 2020      H       7.8317108308    21.5836996238    14.2972500693
 2021      H      12.0865125183    20.7498083816    12.9945079629
 2022      H      10.8029326925    22.5592494571     8.9801273350
 2023      H      16.4055459665    17.4962767661     5.4227670732
 2024      H      15.1219661406    19.3057178415     1.4083864453
 2025      H      16.2081873360    15.2662470363    -0.3256865428
 2026      H       6.5893458046    18.5725722044    -2.2278057492
 2027      H      12.1926401819    13.5103288006    -5.7851009073
 2028      H      10.9085465439    15.3187990209    -9.7985907841
 2029      H      11.9947677393    11.2793282157   -11.5326637722
 2030      H       2.3759262079    14.5856533838   -13.4347829786
 2031      H       3.4621474033    10.5461825786   -15.1688559668
 2032      H      -6.1566941282    13.8525077468   -17.0709751732
 2033      H      -5.0704729328     9.8130369415   -18.8050481614
 2034      H       0.8314534848     7.8860974689   -15.5261271757
 2035      H      -7.7004540315     7.1523116872   -19.1626059064
 2036      H     -11.9559685388     7.9868430740   -17.8595772638
 2037      H      -6.1096404496     0.8670041874   -16.4702079452
 2038      H      -8.7396215484    -1.7937210669   -16.8277656902
 2039      H     -12.9951360556    -0.9591896801   -15.5247370477
 2040      H      -7.1480951468    -8.0796687113   -14.1356542652
 2041      H      -9.7794701686   -10.7404831081   -14.4929905779
 2042      H     -14.0349846758    -9.9059517213   -13.1899619354
 2043      H     -12.7508910378   -11.7144219416    -9.1764720586
 2044      H     -18.3534725955    -6.6528186824    -5.6194634366
 2045      H      -2.2855035373   -18.9523993700    -8.5228489182
 2046      H      -6.5410180445   -18.1178679832    -7.2198202757
 2047      H     -12.5064634030   -13.7719282818    -4.2300290142
 2048      H     -15.1378384248   -16.4327426786    -4.5873653269
 2049      H     -19.3926401123   -15.5988514365    -3.2846232205
 2050      H     -18.1097731061   -17.4076523673     0.7300439435
 2051      H     -14.5764993003   -18.1002081747    -0.3521130078
 2052      H     -23.7123546638   -12.3460491081     4.2870525654
 2053      H     -22.4282610258   -14.1545193284     8.3005424422
 2054      H     -18.8962138518   -14.8474058463     7.2195627781
 2055      H     -23.5151633245   -10.1157778103    10.0345503265
 2056      H      -9.2190111550   -12.4070668915   -10.2584075775
 2057      H     -17.3150178983     2.2938542163    -7.9540171167
 2058      H     -16.2758503814    11.2398869704   -10.2888573328
 2059      H      -0.2078813232    -1.0596937172   -13.1922428144
 2060      H       2.4229798864     1.6001498245   -12.8340157506
 2061      H       9.3639065296     8.6194846740   -11.8908908360
 2062      H      13.0938261462    10.1575987411    -7.2243076351
 2063      H      18.4019993631     7.1059119039    -3.8275583733
 2064      H      19.4889016618     3.0671703858    -5.5615662576
 2065      H      17.3067319308    14.1435467065     3.9835603453
 2066      H      12.9884113023    17.3964381774    11.5550146989
 2067      H      15.3663784496     8.5502440120     7.7576072893
 2068      H      16.2682772336     5.1968738078     6.3181140254
 2069      H      19.6860930011     5.2974416836     0.1859315035
 2070      H      20.5872789654     1.9447116241    -1.2532752244
 2071      H      16.8573593488     0.4065975570    -5.9198584253
 2072      H      10.9556002225     2.3332954616    -9.1978235560
 2073      H      -1.9423944206    17.8385448547    -5.8633286250
 2074      H       8.3247390128    -0.3265480801    -9.5560506198
 2075      H      18.4488857504    -5.8793500874    -3.2277470002
 2076      H      18.6469254842    -3.6485910705     2.5207717196
 2077      H      19.5488242682    -7.0019612747     1.0812784557
 2078      H      14.3272109328    -0.3957887421    10.0924475055
 2079      H      15.2291097168    -3.7491589463     8.6529542415
 2080      H      14.1899421999   -12.6951917003    10.9877944577
 2081      H      13.2880434159    -9.3418214961    12.4272877216
 2082      H       9.8707414606    -9.4414185168    18.5585794925
 2083      H       8.9695554962    -6.0886884573    19.9977862204
 2084      H      10.9099089774    -0.4953857627    16.2237392763
 2085      H      10.0080101934     2.8579844415    17.6632325403
 2086      H      -8.1382938985    -2.7345003791    25.2362984542
 2087      H     -10.7689561006    -5.3959549206    24.8786756053
 2088      H      -9.6820538018    -9.4346964387    23.1446677210
 2089      H     -19.3015764366    -6.1291005577    21.2424834108
 2090      H     -18.2153552412   -10.1685713629    19.5084104226
 2091      H     -16.6702014148    -3.4682861609    21.5998197235
 2092      H     -14.6827942551   -10.8604870257    18.4265400075
 2093      H     -19.4989350671    -8.3591302875    15.4940297948
 2094      H     -20.4008338511    -5.0057600833    16.9335230587
 2095      H     -24.1636542340     4.7446009561    15.6287873128
 2096      H     -25.7088080604    -1.9556842459    13.5373780119
 2097      H     -26.7950292558     2.0837865593    15.2714510000
 2098      H     -26.9922205951    -0.1464847385     9.5239532389
 2099      H     -27.8941193790     3.2068854657    10.9634465029
 2100      H     -25.9530530782     8.7995480156     7.1891130228
 2101      H     -26.8549518622    12.1529182198     8.6286062867
 2102      H     -22.6725060436    -3.3992870669     1.9522774531
 2103      H     -23.5750859309    -0.0466461498     3.3917056132
 2104      H     -21.6333385267     5.5467456872    -0.3825627631
 2105      H     -22.5359184141     8.8993866043     1.0568653970
 2106      H     -20.5948838296    14.4934185859    -2.7171164431
 2107      H     -21.4960697939    17.8461486455    -1.2779097153
 2108      H     -18.2162038626     5.6465842759    -6.5148103888
 2109      H     -17.1770363458    14.5926170299    -8.8496506050
 2110      H     -13.8970031233     2.3928110923   -14.0855954236
 2111      H     -12.8585484261    11.3394839911   -16.4201491037
 2112      H       1.3838123696    -7.3458829296   -10.4991755345
 2113      H       9.9164327056    -6.6127372925    -6.8629833399
 2114      H      15.8181918320    -8.5394351971    -3.5850182091
 2115      H       0.3446448527   -16.2919156836    -8.1643353183
 2116      H       8.8772651888   -15.5587700465    -4.5281431237
 2117      H       6.2471167988   -18.2192537329    -4.8866567236
 2118      H       6.8077431035   -19.8860790843    -0.6511178684
 2119      H       3.2751821174   -19.1941634215     0.4307525468
 2120      H      11.0206488881   -15.9001311188    10.5567501121
 2121      H       7.4886017141   -15.2072446009    11.6377297761
 2122      H      -1.0440186219   -15.9403902380     8.0015375816
 2123      H       2.4880285521   -16.6332767559     6.9205579175
 2124      H      -9.5771527701   -16.6745067302     4.3662361380
 2125      H      -5.2574382186   -19.9273090586    -3.2054396478
 2126      H      10.4607036867   -14.2325764803     6.3212763606
 2127      H      -1.7255583359   -20.6199540085    -4.2873751668
 2128      H       6.7014481487   -12.6463579352    18.1275351469
 2129      H       3.1688871626   -11.9544422725    19.2094055620
 2130      H      -5.3637331734   -12.6875879096    15.5732133674
 2131      H      -1.8310048961   -13.3797451403    14.4922988072
 2132      H     -13.8956406898   -13.4213736913    11.9367346367
 2133      H     -10.3629124124   -14.1135309220    10.8558200765
 2134      H      -6.0438789643   -17.3670625376     3.2840791868
 2135      H      -6.1501739191   -10.1273413886    22.0627322021
 2136      H      -9.7291074804     3.5508071206    22.5439004930
 2137      H      -7.0991263816     6.2115323750    22.9014582380
 2138      H     -18.2624089198     2.8169321964    18.9076431946
 2139      H     -15.6317467177     5.4783867379    19.2652660434
 2140      H     -17.2232414029    11.7629649505    16.5728029784
 2141      H     -14.5925792008    14.4244194919    16.9304258273
 2142      H     -25.7558617390    11.0298193134    12.9366107839
 2143      H     -23.1250322456    13.6910322869    13.2951894876
 2144      H     -16.1841056024    20.7103671363    14.2383144022
 2145      H     -13.5534116840    23.3704522460    14.5955856111
 2146      H     -14.1138706975    25.0370360294    10.3610026108
 2147      H     -10.5813097114    24.3451203667     9.2791321956
 2148      H     -20.3975251991    16.7234483157     3.0313371728
 2149      H     -17.7668312807    19.3835334254     3.3886083817
 2150      H     -18.3267764821    21.0510880639    -0.8468653697
 2151      H     -14.7948965993    20.3584431140    -1.9288008886
 2152      H     -14.0084558536    17.7981965930    -8.4183197233
 2153      H     -10.4756958600    17.1046699305    -9.4995859234
 2154      H      -9.6892551143    14.5444234095   -15.9891047581
 2155      H       7.2862843156    -9.2732209788    -7.2214969398
 2156      H      13.0906847855   -11.5718512259     6.6788341056
 2157      H      12.8469699703    -9.5149850304     1.7321045252
 2158      H      16.3795309564   -10.2069006931     0.6502341101
 2159      H       9.9770364153   -16.6811396658    -0.2200735228
 2160      H      14.8699521891     7.7987984218    -2.7465787093
 2161      H       7.3764993699    16.0116855388    -8.7176111200
 2162      H      -1.1561209661    15.2785399017   -12.3538033146
 2163      H      -5.4758355176    18.5313422301    -4.7821275287
 2164      H      -6.2622762633    21.0915887511     1.7073913059
 2165      H      -9.7948689657    21.7848738456     2.7896133610
 2166      H     -17.2831640093    21.8320966110     9.9299582651
 2167      H     -23.6856585504    15.3578576382     9.0596506323
 2168      H     -20.1537786676    14.6652126884     7.9777151134
 2169      H      -7.6514852664    21.4435127734    17.8745065968
 2170      H      -5.5821304724    25.7710633791    13.9965254866
 2171      H      -2.0486893754    25.0782660037    12.9153243902
 2172      H      -1.2622486297    22.5180194827     6.4258055556
 2173      H       5.2001685178    18.9231267950    13.9389579017
 2174      H       2.2696312531    21.8253745329     5.3438700366
 2175      H       7.2703717064    23.2511651198    10.0619977501
 2176      H      11.5894051545    19.9976335043     2.4902568605
 2177      H       0.1359091236    19.9163364367    15.4895424353
 2178      H       1.9113223468    17.5581762621    19.9675578973
 2179      H      -6.0599588648    15.1575651290    20.5666180219
 2180      H      -8.6906527832    12.4974800193    20.2093468130
 2181      H      11.9490764943     8.4506469913    13.8888990602
 2182      H     -24.6142534478    -8.9926789039     5.7265458293
 2183      H     -20.2945388963   -12.2454812323    -1.8451299565
 2184      H     -19.2553713794    -3.2994484782    -4.1799701727
 2185      H     -14.9361706401    -6.5532216617   -11.7507552075
 2186      H      -7.4428851121   -14.7658672107    -5.7806786516
 2187      H       9.0744565280   -13.3284987488     1.2193546374
 2188      H     -20.8836210115    -7.4552049815    10.3928424941
 2189      H     -22.1760797831    -2.6478414766    12.4564634516
 2190      H     -16.3819780450    18.4793665514     8.4907515373
 2191      H       3.0567848185    19.2644878672    -1.1459353341
 2192      H      13.5774934176    12.6061619266    -0.6829577517
 2193      H      -1.2463360204   -10.0063666159   -10.8576891344
 ----------------------------------------------------------------
 Nuclear Repulsion Energy =     5895459.83974139 hartrees
 There are      300 alpha and      300 beta electrons
 Total job time:  256.55s(wall), 6487.89s(cpu) 
 Thu Oct 21 16:11:06 2021

        *************************************************************
        *                                                           *
        *  Thank you very much for using Q-Chem.  Have a nice day.  *
        *                                                           *
        *************************************************************


