59
# Point 0 Energy = 0
H       -1.0894932828     -0.1498424057     0.0644708712
C       -0.0015284038     -0.0007998216     -0.0041802092
H       0.2395240318     0.9075934452     -0.5778946333
H       0.3877541912     0.1325073484     1.0128395479
H       0.4804135029     -0.8807350497     -0.4496427519
H       -0.1085809487     0.0848876733     -2.1835610362
Al       -1.5356257563     0.7820704866     -3.9578080595
O       -2.4051327824     -0.4485579229     -4.7721487871
O       -2.2008548613     1.3451933678     -2.4940118337
O       -0.0912928503     -0.0781177681     -3.1458932047
O       -0.8372082198     1.9861898206     -4.9532074280
Si       0.9324587184     -1.3133364218     -3.6690710833
Si       -2.7098706945     -0.9137474858     -6.2872893155
Si       -3.2909327780     2.2688842697     -1.7854391649
Si       -1.3485967883     3.3290205126     -5.6853609570
O       0.7861937969     -2.4060134187     -2.4895688267
O       0.4509554610     -1.8388689953     -5.1116931129
O       2.4160159586     -0.6748235272     -3.7072575313
O       -1.7445572942     -2.1956457666     -6.6646223851
O       -2.3946172079     0.2900274111     -7.3567310825
O       -3.2403558958     3.8326945858     -2.2666337179
O       -2.9481288907     2.2486217217     -0.1956221677
O       -1.9003242969     2.9765527921     -7.1888291391
O       -2.5977851355     4.0205731688     -4.8539905111
Si       0.8957780803     -3.9121172777     -1.8502757483
Si       -0.4224636752     -2.9077749573     -6.0571814563
Si       3.9836653199     -1.0527467689     -3.3722630237
Si       -2.6535741004     1.7742265295     -8.0045117469
Si       -3.2581607436     4.8055879301     -3.5824200830
Si       -3.5676346915     2.2076048986     1.2856563818
Si       0.5598607155     -3.8896444128     1.2199107564
O       0.2115523608     -3.8999863163     -0.3760716901
O       2.0882710950     -3.3507477389     1.4559893642
O       4.3641416034     -3.6204526079     0.0359610601
O       -0.4828459428     -2.8772224764     1.9322961044
O       -2.6636990645     -1.6956035092     2.8017162496
O       -3.2988343282     0.7193786387     1.9051493466
O       2.4845895707     -4.2939436778     -1.7511094420
O       4.0394938886     -2.1332981802     -2.1429898220
Si       3.9875538847     -3.6601009392     -1.5461459597
Si       -3.6127372199     -0.3915680523     3.0563114268
Si       -1.3055771118     -2.4517216172     3.2695068576
Si       3.6953455306     -3.6864849161     1.5312405319
O       -4.8002010797     1.6740417880     -2.0534128490
O       -0.3542864258     -1.4620650626     4.1619269891
O       -3.2832469936     0.2526845506     4.5301463542
O       -4.8103376031     5.1933977449     -3.9297065734
O       -5.1697198691     2.5205927458     1.2896541040
O       -2.8036645812     3.3384562879     2.1585702603
Si       -6.3969783397     2.0286654913     -2.1204610650
O       -6.5998724162     3.5293723538     -2.7361146097
O       -7.0326692364     1.9847789088     -0.6179769895
Si       -6.3463639289     4.6249933148     -3.9299609224
Si       -6.6904853973     1.9774035152     0.9788849009
Si       -0.0314889424     -0.8160781735     5.6397546331
O       -0.9975810399     0.4681827876     5.9296678882
Si       -2.3388761578     1.2479597681     5.4300775319
O       -1.8825017700     2.5501842939     4.5552878294
Si       -2.3292194043     3.8312818796     3.6354102092
H       -4.1833186099     -1.4547947863     -6.4191678808
H       -0.1479753897     4.3446390763     -5.8037980990
H       -4.2229574835     2.0663733535     -7.9788305657
H       4.4172810257     -2.5921669380     2.4169487151
H       3.8960514050     -5.1537911395     2.1271433786
H       0.3950982097     -5.3717167055     1.7848201802
H       -5.1105051118     -0.8841042165     2.9788001689
H       -1.7058460833     -3.7507694099     4.1037684208
H       0.1030123397     -4.9050338639     -2.7714183968
H       5.0029756915     -4.6000666540     -2.2933920888
H       0.4484320516     -3.3303640859     -7.3101760806
H       -0.7751596685     -4.1827691379     -5.1435125327
H       -2.0847153081     1.7990313333     -9.4841802405
H       -2.4884707883     6.1471840995     -3.2234640646
H       4.7349226692     0.2886344360     -2.9727993523
H       4.5966398707     -1.6938897038     -4.6928542650
H       -7.1523088317     0.9313577015     -2.9832418968
H       -6.6200429943     3.9159645209     -5.3336257404
H       -6.8282952478     0.4868329580     1.5341554678
H       1.4751454370     -0.3230611592     5.6622234558
H       -0.3066237649     -1.9121535309     6.7644783924
H       -3.1511041808     1.6904827375     6.7032241523
H       -7.3321725874     5.8471199800     -3.6970634790
H       -7.7064344046     2.9599283230     1.6858786931
H       -3.5574400016     4.5966596877     4.3037619761
H       -1.0786618045     4.7766388043     3.4434828545
59
# Point 1 Energy = 0
H       -0.8767640390     -0.6492506461     0.1528504873
C       -0.0017176970     -0.0009725146     -0.0040686132
H       -0.2979849514     0.9696536465     -0.4313196093
H       0.4589030288     0.1900804829     0.9731561438
H       0.7362982858     -0.4989039181     -0.6462427413
H       -0.1085809487     0.0848876733     -2.1835610362
Al       -1.5356257563     0.7820704866     -3.9578080595
O       -2.4051327824     -0.4485579229     -4.7721487871
O       -2.2008548613     1.3451933678     -2.4940118337
O       -0.0912928503     -0.0781177681     -3.1458932047
O       -0.8372082198     1.9861898206     -4.9532074280
Si       0.9324587184     -1.3133364218     -3.6690710833
Si       -2.7098706945     -0.9137474858     -6.2872893155
Si       -3.2909327780     2.2688842697     -1.7854391649
Si       -1.3485967883     3.3290205126     -5.6853609570
O       0.7861937969     -2.4060134187     -2.4895688267
O       0.4509554610     -1.8388689953     -5.1116931129
O       2.4160159586     -0.6748235272     -3.7072575313
O       -1.7445572942     -2.1956457666     -6.6646223851
O       -2.3946172079     0.2900274111     -7.3567310825
O       -3.2403558958     3.8326945858     -2.2666337179
O       -2.9481288907     2.2486217217     -0.1956221677
O       -1.9003242969     2.9765527921     -7.1888291391
O       -2.5977851355     4.0205731688     -4.8539905111
Si       0.8957780803     -3.9121172777     -1.8502757483
Si       -0.4224636752     -2.9077749573     -6.0571814563
Si       3.9836653199     -1.0527467689     -3.3722630237
Si       -2.6535741004     1.7742265295     -8.0045117469
Si       -3.2581607436     4.8055879301     -3.5824200830
Si       -3.5676346915     2.2076048986     1.2856563818
Si       0.5598607155     -3.8896444128     1.2199107564
O       0.2115523608     -3.8999863163     -0.3760716901
O       2.0882710950     -3.3507477389     1.4559893642
O       4.3641416034     -3.6204526079     0.0359610601
O       -0.4828459428     -2.8772224764     1.9322961044
O       -2.6636990645     -1.6956035092     2.8017162496
O       -3.2988343282     0.7193786387     1.9051493466
O       2.4845895707     -4.2939436778     -1.7511094420
O       4.0394938886     -2.1332981802     -2.1429898220
Si       3.9875538847     -3.6601009392     -1.5461459597
Si       -3.6127372199     -0.3915680523     3.0563114268
Si       -1.3055771118     -2.4517216172     3.2695068576
Si       3.6953455306     -3.6864849161     1.5312405319
O       -4.8002010797     1.6740417880     -2.0534128490
O       -0.3542864258     -1.4620650626     4.1619269891
O       -3.2832469936     0.2526845506     4.5301463542
O       -4.8103376031     5.1933977449     -3.9297065734
O       -5.1697198691     2.5205927458     1.2896541040
O       -2.8036645812     3.3384562879     2.1585702603
Si       -6.3969783397     2.0286654913     -2.1204610650
O       -6.5998724162     3.5293723538     -2.7361146097
O       -7.0326692364     1.9847789088     -0.6179769895
Si       -6.3463639289     4.6249933148     -3.9299609224
Si       -6.6904853973     1.9774035152     0.9788849009
Si       -0.0314889424     -0.8160781735     5.6397546331
O       -0.9975810399     0.4681827876     5.9296678882
Si       -2.3388761578     1.2479597681     5.4300775319
O       -1.8825017700     2.5501842939     4.5552878294
Si       -2.3292194043     3.8312818796     3.6354102092
H       -4.1833186099     -1.4547947863     -6.4191678808
H       -0.1479753897     4.3446390763     -5.8037980990
H       -4.2229574835     2.0663733535     -7.9788305657
H       4.4172810257     -2.5921669380     2.4169487151
H       3.8960514050     -5.1537911395     2.1271433786
H       0.3950982097     -5.3717167055     1.7848201802
H       -5.1105051118     -0.8841042165     2.9788001689
H       -1.7058460833     -3.7507694099     4.1037684208
H       0.1030123397     -4.9050338639     -2.7714183968
H       5.0029756915     -4.6000666540     -2.2933920888
H       0.4484320516     -3.3303640859     -7.3101760806
H       -0.7751596685     -4.1827691379     -5.1435125327
H       -2.0847153081     1.7990313333     -9.4841802405
H       -2.4884707883     6.1471840995     -3.2234640646
H       4.7349226692     0.2886344360     -2.9727993523
H       4.5966398707     -1.6938897038     -4.6928542650
H       -7.1523088317     0.9313577015     -2.9832418968
H       -6.6200429943     3.9159645209     -5.3336257404
H       -6.8282952478     0.4868329580     1.5341554678
H       1.4751454370     -0.3230611592     5.6622234558
H       -0.3066237649     -1.9121535309     6.7644783924
H       -3.1511041808     1.6904827375     6.7032241523
H       -7.3321725874     5.8471199800     -3.6970634790
H       -7.7064344046     2.9599283230     1.6858786931
H       -3.5574400016     4.5966596877     4.3037619761
H       -1.0786618045     4.7766388043     3.4434828545
59
# Point 2 Energy = 0
H       -0.4511517554     -0.9967378766     0.1287654923
C       -0.0017867103     -0.0012245989     -0.0039696228
H       -0.7712148074     0.7563302363     -0.2196636637
H       0.4885248358     0.2781573709     0.9368710807
H       0.7551157812     -0.0231686410     -0.7987072912
H       -0.1085809487     0.0848876733     -2.1835610362
Al       -1.5356257563     0.7820704866     -3.9578080595
O       -2.4051327824     -0.4485579229     -4.7721487871
O       -2.2008548613     1.3451933678     -2.4940118337
O       -0.0912928503     -0.0781177681     -3.1458932047
O       -0.8372082198     1.9861898206     -4.9532074280
Si       0.9324587184     -1.3133364218     -3.6690710833
Si       -2.7098706945     -0.9137474858     -6.2872893155
Si       -3.2909327780     2.2688842697     -1.7854391649
Si       -1.3485967883     3.3290205126     -5.6853609570
O       0.7861937969     -2.4060134187     -2.4895688267
O       0.4509554610     -1.8388689953     -5.1116931129
O       2.4160159586     -0.6748235272     -3.7072575313
O       -1.7445572942     -2.1956457666     -6.6646223851
O       -2.3946172079     0.2900274111     -7.3567310825
O       -3.2403558958     3.8326945858     -2.2666337179
O       -2.9481288907     2.2486217217     -0.1956221677
O       -1.9003242969     2.9765527921     -7.1888291391
O       -2.5977851355     4.0205731688     -4.8539905111
Si       0.8957780803     -3.9121172777     -1.8502757483
Si       -0.4224636752     -2.9077749573     -6.0571814563
Si       3.9836653199     -1.0527467689     -3.3722630237
Si       -2.6535741004     1.7742265295     -8.0045117469
Si       -3.2581607436     4.8055879301     -3.5824200830
Si       -3.5676346915     2.2076048986     1.2856563818
Si       0.5598607155     -3.8896444128     1.2199107564
O       0.2115523608     -3.8999863163     -0.3760716901
O       2.0882710950     -3.3507477389     1.4559893642
O       4.3641416034     -3.6204526079     0.0359610601
O       -0.4828459428     -2.8772224764     1.9322961044
O       -2.6636990645     -1.6956035092     2.8017162496
O       -3.2988343282     0.7193786387     1.9051493466
O       2.4845895707     -4.2939436778     -1.7511094420
O       4.0394938886     -2.1332981802     -2.1429898220
Si       3.9875538847     -3.6601009392     -1.5461459597
Si       -3.6127372199     -0.3915680523     3.0563114268
Si       -1.3055771118     -2.4517216172     3.2695068576
Si       3.6953455306     -3.6864849161     1.5312405319
O       -4.8002010797     1.6740417880     -2.0534128490
O       -0.3542864258     -1.4620650626     4.1619269891
O       -3.2832469936     0.2526845506     4.5301463542
O       -4.8103376031     5.1933977449     -3.9297065734
O       -5.1697198691     2.5205927458     1.2896541040
O       -2.8036645812     3.3384562879     2.1585702603
Si       -6.3969783397     2.0286654913     -2.1204610650
O       -6.5998724162     3.5293723538     -2.7361146097
O       -7.0326692364     1.9847789088     -0.6179769895
Si       -6.3463639289     4.6249933148     -3.9299609224
Si       -6.6904853973     1.9774035152     0.9788849009
Si       -0.0314889424     -0.8160781735     5.6397546331
O       -0.9975810399     0.4681827876     5.9296678882
Si       -2.3388761578     1.2479597681     5.4300775319
O       -1.8825017700     2.5501842939     4.5552878294
Si       -2.3292194043     3.8312818796     3.6354102092
H       -4.1833186099     -1.4547947863     -6.4191678808
H       -0.1479753897     4.3446390763     -5.8037980990
H       -4.2229574835     2.0663733535     -7.9788305657
H       4.4172810257     -2.5921669380     2.4169487151
H       3.8960514050     -5.1537911395     2.1271433786
H       0.3950982097     -5.3717167055     1.7848201802
H       -5.1105051118     -0.8841042165     2.9788001689
H       -1.7058460833     -3.7507694099     4.1037684208
H       0.1030123397     -4.9050338639     -2.7714183968
H       5.0029756915     -4.6000666540     -2.2933920888
H       0.4484320516     -3.3303640859     -7.3101760806
H       -0.7751596685     -4.1827691379     -5.1435125327
H       -2.0847153081     1.7990313333     -9.4841802405
H       -2.4884707883     6.1471840995     -3.2234640646
H       4.7349226692     0.2886344360     -2.9727993523
H       4.5966398707     -1.6938897038     -4.6928542650
H       -7.1523088317     0.9313577015     -2.9832418968
H       -6.6200429943     3.9159645209     -5.3336257404
H       -6.8282952478     0.4868329580     1.5341554678
H       1.4751454370     -0.3230611592     5.6622234558
H       -0.3066237649     -1.9121535309     6.7644783924
H       -3.1511041808     1.6904827375     6.7032241523
H       -7.3321725874     5.8471199800     -3.6970634790
H       -7.7064344046     2.9599283230     1.6858786931
H       -3.5574400016     4.5966596877     4.3037619761
H       -1.0786618045     4.7766388043     3.4434828545
59
# Point 3 Energy = 0
H       0.0733011004     -1.0991951744     -0.0013305589
C       -0.0017169518     -0.0014885286     -0.0039097622
H       -1.0533639786     0.3247830502     0.0003601637
H       0.4686824730     0.3731378815     0.9137069120
H       0.5318238563     0.4189978983     -0.8661836485
H       -0.1085809487     0.0848876733     -2.1835610362
Al       -1.5356257563     0.7820704866     -3.9578080595
O       -2.4051327824     -0.4485579229     -4.7721487871
O       -2.2008548613     1.3451933678     -2.4940118337
O       -0.0912928503     -0.0781177681     -3.1458932047
O       -0.8372082198     1.9861898206     -4.9532074280
Si       0.9324587184     -1.3133364218     -3.6690710833
Si       -2.7098706945     -0.9137474858     -6.2872893155
Si       -3.2909327780     2.2688842697     -1.7854391649
Si       -1.3485967883     3.3290205126     -5.6853609570
O       0.7861937969     -2.4060134187     -2.4895688267
O       0.4509554610     -1.8388689953     -5.1116931129
O       2.4160159586     -0.6748235272     -3.7072575313
O       -1.7445572942     -2.1956457666     -6.6646223851
O       -2.3946172079     0.2900274111     -7.3567310825
O       -3.2403558958     3.8326945858     -2.2666337179
O       -2.9481288907     2.2486217217     -0.1956221677
O       -1.9003242969     2.9765527921     -7.1888291391
O       -2.5977851355     4.0205731688     -4.8539905111
Si       0.8957780803     -3.9121172777     -1.8502757483
Si       -0.4224636752     -2.9077749573     -6.0571814563
Si       3.9836653199     -1.0527467689     -3.3722630237
Si       -2.6535741004     1.7742265295     -8.0045117469
Si       -3.2581607436     4.8055879301     -3.5824200830
Si       -3.5676346915     2.2076048986     1.2856563818
Si       0.5598607155     -3.8896444128     1.2199107564
O       0.2115523608     -3.8999863163     -0.3760716901
O       2.0882710950     -3.3507477389     1.4559893642
O       4.3641416034     -3.6204526079     0.0359610601
O       -0.4828459428     -2.8772224764     1.9322961044
O       -2.6636990645     -1.6956035092     2.8017162496
O       -3.2988343282     0.7193786387     1.9051493466
O       2.4845895707     -4.2939436778     -1.7511094420
O       4.0394938886     -2.1332981802     -2.1429898220
Si       3.9875538847     -3.6601009392     -1.5461459597
Si       -3.6127372199     -0.3915680523     3.0563114268
Si       -1.3055771118     -2.4517216172     3.2695068576
Si       3.6953455306     -3.6864849161     1.5312405319
O       -4.8002010797     1.6740417880     -2.0534128490
O       -0.3542864258     -1.4620650626     4.1619269891
O       -3.2832469936     0.2526845506     4.5301463542
O       -4.8103376031     5.1933977449     -3.9297065734
O       -5.1697198691     2.5205927458     1.2896541040
O       -2.8036645812     3.3384562879     2.1585702603
Si       -6.3969783397     2.0286654913     -2.1204610650
O       -6.5998724162     3.5293723538     -2.7361146097
O       -7.0326692364     1.9847789088     -0.6179769895
Si       -6.3463639289     4.6249933148     -3.9299609224
Si       -6.6904853973     1.9774035152     0.9788849009
Si       -0.0314889424     -0.8160781735     5.6397546331
O       -0.9975810399     0.4681827876     5.9296678882
Si       -2.3388761578     1.2479597681     5.4300775319
O       -1.8825017700     2.5501842939     4.5552878294
Si       -2.3292194043     3.8312818796     3.6354102092
H       -4.1833186099     -1.4547947863     -6.4191678808
H       -0.1479753897     4.3446390763     -5.8037980990
H       -4.2229574835     2.0663733535     -7.9788305657
H       4.4172810257     -2.5921669380     2.4169487151
H       3.8960514050     -5.1537911395     2.1271433786
H       0.3950982097     -5.3717167055     1.7848201802
H       -5.1105051118     -0.8841042165     2.9788001689
H       -1.7058460833     -3.7507694099     4.1037684208
H       0.1030123397     -4.9050338639     -2.7714183968
H       5.0029756915     -4.6000666540     -2.2933920888
H       0.4484320516     -3.3303640859     -7.3101760806
H       -0.7751596685     -4.1827691379     -5.1435125327
H       -2.0847153081     1.7990313333     -9.4841802405
H       -2.4884707883     6.1471840995     -3.2234640646
H       4.7349226692     0.2886344360     -2.9727993523
H       4.5966398707     -1.6938897038     -4.6928542650
H       -7.1523088317     0.9313577015     -2.9832418968
H       -6.6200429943     3.9159645209     -5.3336257404
H       -6.8282952478     0.4868329580     1.5341554678
H       1.4751454370     -0.3230611592     5.6622234558
H       -0.3066237649     -1.9121535309     6.7644783924
H       -3.1511041808     1.6904827375     6.7032241523
H       -7.3321725874     5.8471199800     -3.6970634790
H       -7.7064344046     2.9599283230     1.6858786931
H       -3.5574400016     4.5966596877     4.3037619761
H       -1.0786618045     4.7766388043     3.4434828545
59
# Point 4 Energy = 0
H       0.5560678091     -0.9291691892     -0.2025785343
C       -0.0015271132     -0.0016935840     -0.0039050711
H       -1.0688308223     -0.2093551919     0.1697966660
H       0.4046926855     0.4495720634     0.9098704579
H       0.1262534023     0.7091175327     -0.8305915777
H       -0.1085809487     0.0848876733     -2.1835610362
Al       -1.5356257563     0.7820704866     -3.9578080595
O       -2.4051327824     -0.4485579229     -4.7721487871
O       -2.2008548613     1.3451933678     -2.4940118337
O       -0.0912928503     -0.0781177681     -3.1458932047
O       -0.8372082198     1.9861898206     -4.9532074280
Si       0.9324587184     -1.3133364218     -3.6690710833
Si       -2.7098706945     -0.9137474858     -6.2872893155
Si       -3.2909327780     2.2688842697     -1.7854391649
Si       -1.3485967883     3.3290205126     -5.6853609570
O       0.7861937969     -2.4060134187     -2.4895688267
O       0.4509554610     -1.8388689953     -5.1116931129
O       2.4160159586     -0.6748235272     -3.7072575313
O       -1.7445572942     -2.1956457666     -6.6646223851
O       -2.3946172079     0.2900274111     -7.3567310825
O       -3.2403558958     3.8326945858     -2.2666337179
O       -2.9481288907     2.2486217217     -0.1956221677
O       -1.9003242969     2.9765527921     -7.1888291391
O       -2.5977851355     4.0205731688     -4.8539905111
Si       0.8957780803     -3.9121172777     -1.8502757483
Si       -0.4224636752     -2.9077749573     -6.0571814563
Si       3.9836653199     -1.0527467689     -3.3722630237
Si       -2.6535741004     1.7742265295     -8.0045117469
Si       -3.2581607436     4.8055879301     -3.5824200830
Si       -3.5676346915     2.2076048986     1.2856563818
Si       0.5598607155     -3.8896444128     1.2199107564
O       0.2115523608     -3.8999863163     -0.3760716901
O       2.0882710950     -3.3507477389     1.4559893642
O       4.3641416034     -3.6204526079     0.0359610601
O       -0.4828459428     -2.8772224764     1.9322961044
O       -2.6636990645     -1.6956035092     2.8017162496
O       -3.2988343282     0.7193786387     1.9051493466
O       2.4845895707     -4.2939436778     -1.7511094420
O       4.0394938886     -2.1332981802     -2.1429898220
Si       3.9875538847     -3.6601009392     -1.5461459597
Si       -3.6127372199     -0.3915680523     3.0563114268
Si       -1.3055771118     -2.4517216172     3.2695068576
Si       3.6953455306     -3.6864849161     1.5312405319
O       -4.8002010797     1.6740417880     -2.0534128490
O       -0.3542864258     -1.4620650626     4.1619269891
O       -3.2832469936     0.2526845506     4.5301463542
O       -4.8103376031     5.1933977449     -3.9297065734
O       -5.1697198691     2.5205927458     1.2896541040
O       -2.8036645812     3.3384562879     2.1585702603
Si       -6.3969783397     2.0286654913     -2.1204610650
O       -6.5998724162     3.5293723538     -2.7361146097
O       -7.0326692364     1.9847789088     -0.6179769895
Si       -6.3463639289     4.6249933148     -3.9299609224
Si       -6.6904853973     1.9774035152     0.9788849009
Si       -0.0314889424     -0.8160781735     5.6397546331
O       -0.9975810399     0.4681827876     5.9296678882
Si       -2.3388761578     1.2479597681     5.4300775319
O       -1.8825017700     2.5501842939     4.5552878294
Si       -2.3292194043     3.8312818796     3.6354102092
H       -4.1833186099     -1.4547947863     -6.4191678808
H       -0.1479753897     4.3446390763     -5.8037980990
H       -4.2229574835     2.0663733535     -7.9788305657
H       4.4172810257     -2.5921669380     2.4169487151
H       3.8960514050     -5.1537911395     2.1271433786
H       0.3950982097     -5.3717167055     1.7848201802
H       -5.1105051118     -0.8841042165     2.9788001689
H       -1.7058460833     -3.7507694099     4.1037684208
H       0.1030123397     -4.9050338639     -2.7714183968
H       5.0029756915     -4.6000666540     -2.2933920888
H       0.4484320516     -3.3303640859     -7.3101760806
H       -0.7751596685     -4.1827691379     -5.1435125327
H       -2.0847153081     1.7990313333     -9.4841802405
H       -2.4884707883     6.1471840995     -3.2234640646
H       4.7349226692     0.2886344360     -2.9727993523
H       4.5966398707     -1.6938897038     -4.6928542650
H       -7.1523088317     0.9313577015     -2.9832418968
H       -6.6200429943     3.9159645209     -5.3336257404
H       -6.8282952478     0.4868329580     1.5341554678
H       1.4751454370     -0.3230611592     5.6622234558
H       -0.3066237649     -1.9121535309     6.7644783924
H       -3.1511041808     1.6904827375     6.7032241523
H       -7.3321725874     5.8471199800     -3.6970634790
H       -7.7064344046     2.9599283230     1.6858786931
H       -3.5574400016     4.5966596877     4.3037619761
H       -1.0786618045     4.7766388043     3.4434828545
59
# Point 5 Energy = 0
H       0.8677914210     -0.5322182466     -0.4210542016
C       -0.0012680615     -0.0017848207     -0.0039568064
H       -0.8134710102     -0.7029625793     0.2432454694
H       0.3137014851     0.4869794395     0.9263896932
H       -0.3529233054     0.7694529405     -0.7014679456
H       -0.1085809487     0.0848876733     -2.1835610362
Al       -1.5356257563     0.7820704866     -3.9578080595
O       -2.4051327824     -0.4485579229     -4.7721487871
O       -2.2008548613     1.3451933678     -2.4940118337
O       -0.0912928503     -0.0781177681     -3.1458932047
O       -0.8372082198     1.9861898206     -4.9532074280
Si       0.9324587184     -1.3133364218     -3.6690710833
Si       -2.7098706945     -0.9137474858     -6.2872893155
Si       -3.2909327780     2.2688842697     -1.7854391649
Si       -1.3485967883     3.3290205126     -5.6853609570
O       0.7861937969     -2.4060134187     -2.4895688267
O       0.4509554610     -1.8388689953     -5.1116931129
O       2.4160159586     -0.6748235272     -3.7072575313
O       -1.7445572942     -2.1956457666     -6.6646223851
O       -2.3946172079     0.2900274111     -7.3567310825
O       -3.2403558958     3.8326945858     -2.2666337179
O       -2.9481288907     2.2486217217     -0.1956221677
O       -1.9003242969     2.9765527921     -7.1888291391
O       -2.5977851355     4.0205731688     -4.8539905111
Si       0.8957780803     -3.9121172777     -1.8502757483
Si       -0.4224636752     -2.9077749573     -6.0571814563
Si       3.9836653199     -1.0527467689     -3.3722630237
Si       -2.6535741004     1.7742265295     -8.0045117469
Si       -3.2581607436     4.8055879301     -3.5824200830
Si       -3.5676346915     2.2076048986     1.2856563818
Si       0.5598607155     -3.8896444128     1.2199107564
O       0.2115523608     -3.8999863163     -0.3760716901
O       2.0882710950     -3.3507477389     1.4559893642
O       4.3641416034     -3.6204526079     0.0359610601
O       -0.4828459428     -2.8772224764     1.9322961044
O       -2.6636990645     -1.6956035092     2.8017162496
O       -3.2988343282     0.7193786387     1.9051493466
O       2.4845895707     -4.2939436778     -1.7511094420
O       4.0394938886     -2.1332981802     -2.1429898220
Si       3.9875538847     -3.6601009392     -1.5461459597
Si       -3.6127372199     -0.3915680523     3.0563114268
Si       -1.3055771118     -2.4517216172     3.2695068576
Si       3.6953455306     -3.6864849161     1.5312405319
O       -4.8002010797     1.6740417880     -2.0534128490
O       -0.3542864258     -1.4620650626     4.1619269891
O       -3.2832469936     0.2526845506     4.5301463542
O       -4.8103376031     5.1933977449     -3.9297065734
O       -5.1697198691     2.5205927458     1.2896541040
O       -2.8036645812     3.3384562879     2.1585702603
Si       -6.3969783397     2.0286654913     -2.1204610650
O       -6.5998724162     3.5293723538     -2.7361146097
O       -7.0326692364     1.9847789088     -0.6179769895
Si       -6.3463639289     4.6249933148     -3.9299609224
Si       -6.6904853973     1.9774035152     0.9788849009
Si       -0.0314889424     -0.8160781735     5.6397546331
O       -0.9975810399     0.4681827876     5.9296678882
Si       -2.3388761578     1.2479597681     5.4300775319
O       -1.8825017700     2.5501842939     4.5552878294
Si       -2.3292194043     3.8312818796     3.6354102092
H       -4.1833186099     -1.4547947863     -6.4191678808
H       -0.1479753897     4.3446390763     -5.8037980990
H       -4.2229574835     2.0663733535     -7.9788305657
H       4.4172810257     -2.5921669380     2.4169487151
H       3.8960514050     -5.1537911395     2.1271433786
H       0.3950982097     -5.3717167055     1.7848201802
H       -5.1105051118     -0.8841042165     2.9788001689
H       -1.7058460833     -3.7507694099     4.1037684208
H       0.1030123397     -4.9050338639     -2.7714183968
H       5.0029756915     -4.6000666540     -2.2933920888
H       0.4484320516     -3.3303640859     -7.3101760806
H       -0.7751596685     -4.1827691379     -5.1435125327
H       -2.0847153081     1.7990313333     -9.4841802405
H       -2.4884707883     6.1471840995     -3.2234640646
H       4.7349226692     0.2886344360     -2.9727993523
H       4.5966398707     -1.6938897038     -4.6928542650
H       -7.1523088317     0.9313577015     -2.9832418968
H       -6.6200429943     3.9159645209     -5.3336257404
H       -6.8282952478     0.4868329580     1.5341554678
H       1.4751454370     -0.3230611592     5.6622234558
H       -0.3066237649     -1.9121535309     6.7644783924
H       -3.1511041808     1.6904827375     6.7032241523
H       -7.3321725874     5.8471199800     -3.6970634790
H       -7.7064344046     2.9599283230     1.6858786931
H       -3.5574400016     4.5966596877     4.3037619761
H       -1.0786618045     4.7766388043     3.4434828545
59
# Point 6 Energy = 0
H       0.9249458461     -0.0147050310     -0.5982171821
C       -0.0010092095     -0.0017377918     -0.0040511057
H       -0.3557079979     -1.0237774113     0.2010260262
H       0.2200898906     0.4753367335     0.9588383023
H       -0.7773112548     0.5838372978     -0.5134113251
H       -0.1085809487     0.0848876733     -2.1835610362
Al       -1.5356257563     0.7820704866     -3.9578080595
O       -2.4051327824     -0.4485579229     -4.7721487871
O       -2.2008548613     1.3451933678     -2.4940118337
O       -0.0912928503     -0.0781177681     -3.1458932047
O       -0.8372082198     1.9861898206     -4.9532074280
Si       0.9324587184     -1.3133364218     -3.6690710833