
Running Job 1 of 1 METH-CHA-freq.in
qchem METH-CHA-freq.in_31283.0 /scr/lance/134489/qchem31283/ 0
/home/mgcf/software-ws/qchem/qchem_540/exe/qcprog.exe_s METH-CHA-freq.in_31283.0 /scr/lance/134489/qchem31283/
                  Welcome to Q-Chem
     A Quantum Leap Into The Future Of Chemistry


 Q-Chem 5.4, Q-Chem, Inc., Pleasanton, CA (2021)

 E. Epifanovsky,  A. T. B. Gilbert,  Xintian Feng,  Joonho Lee,  Yuezhi Mao,  
 N. Mardirossian,  P. Pokhilko,  A. White,  M. Wormit,  M. P. Coons,  
 A. L. Dempwolff,  Zhengting Gan,  D. Hait,  P. R. Horn,  L. D. Jacobson,  
 I. Kaliman,  J. Kussmann,  A. W. Lange,  Ka Un Lao,  D. S. Levine,  Jie Liu,  
 S. C. McKenzie,  A. F. Morrison,  K. Nanda,  F. Plasser,  D. R. Rehn,  
 M. L. Vidal,  Zhi-Qiang You,  Ying Zhu,  B. Alam,  B. Albrecht,  
 A. Aldossary,  E. Alguire,  J. H. Andersen,  D. Barton,  K. Begam,  A. Behn,  
 Y. A. Bernard,  E. J. Berquist,  H. Burton,  A. Carreras,  K. Carter-Fenk,  
 R. Chakraborty,  A. D. Chien,  K. D. Closser,  V. Cofer-Shabica,  
 S. Dasgupta,  Jia Deng,  M. de Wergifosse,  M. Diedenhofen,  Hainam Do,  
 S. Ehlert,  Po-Tung Fang,  S. Fatehi,  Qingguo Feng,  J. Gayvert,  
 Qinghui Ge,  G. Gidofalvi,  M. Goldey,  J. Gomes,  C. Gonzalez-Espinoza,  
 S. Gulania,  A. Gunina,  M. W. D. Hanson-Heine,  P. H. P. Harbach,  
 A. W. Hauser,  M. F. Herbst,  M. Hernandez Vera,  M. Hodecker,  
 Z. C. Holden,  S. Houck,  Xunkun Huang,  Kerwin Hui,  B. C. Huynh,  
 M. Ivanov,  Hyunjun Ji,  Hanjie Jiang,  B. Kaduk,  S. Kaehler,  
 K. Khistyaev,  Jaehoon Kim,  P. Klunzinger,  Z. Koczor-Benda,  
 Joong Hoon Koh,  D. Kosenkov,  L. Koulias,  T. Kowalczyk,  C. M. Krauter,  
 K. Kue,  A. Kunitsa,  T. Kus,  A. Landau,  K. V. Lawler,  D. Lefrancois,  
 S. Lehtola,  Rain Li,  Yi-Pei Li,  Jiashu Liang,  M. Liebenthal,  
 Hung-Hsuan Lin,  You-Sheng Lin,  Fenglai Liu,  Kuan-Yu Liu,  
 M. Loipersberger,  A. Luenser,  A. Manjanath,  P. Manohar,  E. Mansoor,  
 S. F. Manzer,  Shan-Ping Mao,  A. V. Marenich,  T. Markovich,  S. Mason,  
 S. A. Maurer,  P. F. McLaughlin,  M. F. S. J. Menger,  J.-M. Mewes,  
 S. A. Mewes,  P. Morgante,  J. W. Mullinax,  T. S. Nguyen-Beck,  
 K. J. Oosterbaan,  G. Paran,  Alexander C. Paul,  Suranjan K. Paul,  
 F. Pavosevic,  Zheng Pei,  S. Prager,  E. I. Proynov,  E. Ramos,  B. Rana,  
 A. E. Rask,  A. Rettig,  R. M. Richard,  F. Rob,  E. Rossomme,  T. Scheele,  
 M. Scheurer,  M. Schneider,  N. Sergueev,  S. M. Sharada,  W. Skomorowski,  
 D. W. Small,  C. J. Stein,  Yu-Chuan Su,  E. J. Sundstrom,  Zhen Tao,  
 J. Thirman,  T. Tsuchimochi,  N. M. Tubman,  S. P. Veccham,  O. Vydrov,  
 J. Wenzel,  J. Witte,  A. Yamada,  Kun Yao,  S. Yeganeh,  S. R. Yost,  
 A. Zech,  Igor Ying Zhang,  Xing Zhang,  Yu Zhang,  D. Zuev,  
 A. Aspuru-Guzik,  A. T. Bell,  N. A. Besley,  K. B. Bravaya,  B. R. Brooks,  
 D. Casanova,  Jeng-Da Chai,  S. Coriani,  C. J. Cramer,  
 A. E. DePrince, III,  R. A. DiStasio Jr.,  A. Dreuw,  B. D. Dunietz,  
 T. R. Furlani,  W. A. Goddard III,  S. Grimme,  S. Hammes-Schiffer,  
 T. Head-Gordon,  W. J. Hehre,  Chao-Ping Hsu,  T.-C. Jagau,  Yousung Jung,  
 A. Klamt,  Jing Kong,  D. S. Lambrecht,  WanZhen Liang,  N. J. Mayhall,  
 C. W. McCurdy,  J. B. Neaton,  C. Ochsenfeld,  J. A. Parkhill,  R. Peverati,  
 V. A. Rassolov,  Yihan Shao,  L. V. Slipchenko,  T. Stauch,  R. P. Steele,  
 J. E. Subotnik,  A. J. W. Thom,  A. Tkatchenko,  D. G. Truhlar,  
 T. Van Voorhis,  T. A. Wesolowski,  K. B. Whaley,  H. L. Woodcock III,  
 P. M. Zimmerman,  S. Faraji,  P. M. W. Gill,  M. Head-Gordon,  
 J. M. Herbert,  A. I. Krylov

 Contributors to earlier versions of Q-Chem not listed above: 
 R. D. Adamson,  B. Austin,  R. Baer,  J. Baker,  G. J. O. Beran,  
 K. Brandhorst,  S. T. Brown,  E. F. C. Byrd,  A. K. Chakraborty,  
 G. K. L. Chan,  Chun-Min Chang,  Yunqing Chen,  C.-L. Cheng,  
 Siu Hung Chien,  D. M. Chipman,  D. L. Crittenden,  H. Dachsel,  
 R. J. Doerksen,  A. D. Dutoi,  R. G. Edgar,  J. Fosso-Tande,  
 L. Fusti-Molnar,  D. Ghosh,  A. Ghysels,  A. Golubeva-Zadorozhnaya,  
 J. Gonthier,  M. S. Gordon,  S. R. Gwaltney,  G. Hawkins,  J. E. Herr,  
 A. Heyden,  S. Hirata,  E. G. Hohenstein,  G. Kedziora,  F. J. Keil,  
 C. Kelley,  Jihan Kim,  R. A. King,  R. Z. Khaliullin,  P. P. Korambath,  
 W. Kurlancheek,  A. Laurent,  A. M. Lee,  M. S. Lee,  S. V. Levchenko,  
 Ching Yeh Lin,  D. Liotard,  E. Livshits,  R. C. Lochan,  I. Lotan,  
 L. A. Martinez-Martinez,  P. E. Maslen,  N. Nair,  D. P. O'Neill,  
 D. Neuhauser,  E. Neuscamman,  C. M. Oana,  R. Olivares-Amaya,  R. Olson,  
 T. M. Perrine,  B. Peters,  P. A. Pieniazek,  A. Prociuk,  Y. M. Rhee,  
 J. Ritchie,  M. A. Rohrdanz,  E. Rosta,  N. J. Russ,  H. F. Schaefer III,  
 M. W. Schmidt,  N. E. Schultz,  S. Sharma,  N. Shenvi,  C. D. Sherrill,  
 A. C. Simmonett,  A. Sodt,  T. Stein,  D. Stuck,  K. S. Thanthiriwatte,  
 V. Vanovschi,  L. Vogt,  Tao Wang,  A. Warshel,  M. A. Watson,  
 C. F. Williams,  Q. Wu,  X. Xu,  Jun Yang,  W. Zhang,  Yan Zhao

 Please cite Q-Chem as follows:
 Y. Shao et al., Mol. Phys. 113, 184-215 (2015)
 DOI: 10.1080/00268976.2014.952696

 Q-Chem 5.4.0 for Intel X86 EM64T Linux

 Parts of Q-Chem use Armadillo 9.800.1 (Horizon Scraper).
 http://arma.sourceforge.net/

 Q-Chem begins on Fri Jun 25 10:30:52 2021  

 Host: 
0

     Scratch files written to /scr/lance/134489/qchem31283//
 May1621 |scratch|qcdevops|jenkins|workspace|build_RNUM -1
 Processing $rem in /home/mgcf/software-ws/qchem/qchem_540/config/preferences:
 Processing $rem in /home/lance/.qchemrc:
Applying user defined connections for MM calculations

 Checking the input file for inconsistencies... 	...done.

--------------------------------------------------------------
User input:
--------------------------------------------------------------
$rem
jobtype		freq
gui     	2
!vibman_print	4
max_scf_cycles  500
geom_opt_max_cycles 999
exchange 	omegab97x-d
basis def2-svp
!basis		6-311+G(3df,3pd)
scf_algorithm 	rca_diis
QM_MM_INTERFACE Zeolite
force_field   	charmm27
user_connect   	true
symmetry  	 off
sym_ignore   	true
print_input   	true
qmmm_print   	false
qm_mm   	true
model_system_mult 1
qmmm_full_hessian 	false
mem_total   10000000
mem_static   10000
pop_mulliken 	false
!nbo	true
isotopes true
$end

$qm_atoms
1
2
3
4
5
6
7
8
9
10
11
12
13
14
15
16
17
18
19
20
21
22
23
24
25
26
27
28
29
30
31
32
33
34
35
36
37
38
39
40
41
42
43
44
45
46
47
48
49
50
51
52
53
54
55
56
57
58
59
$end

$isotopes
1 0
26
60 100000000000000000
61 100000000000000000
62 100000000000000000
63 100000000000000000
64 100000000000000000
65 100000000000000000
66 100000000000000000
67 100000000000000000
68 100000000000000000
69 100000000000000000
70 100000000000000000
71 100000000000000000
72 100000000000000000
73 100000000000000000
74 100000000000000000
75 100000000000000000
76 100000000000000000
77 100000000000000000
78 100000000000000000
79 100000000000000000
80 100000000000000000
81 100000000000000000
82 100000000000000000
83 100000000000000000
84 100000000000000000
85 100000000000000000
$end

$comment
Atom   type   and   names
-1   Oxygen   in   SiO4
-2   Silicon   in   SiO4
-3   H for terminal in SiO4
-4   H hydrolysis
-23  Si right out of T5 and has one connectin to QM
-22  Si right out of T5 and has two connectin to QM
$end

$opt
fixed
60 XYZ
61 XYZ
62 XYZ
63	XYZ
64	XYZ
65	XYZ
66	XYZ
67	XYZ
68	XYZ
69	XYZ
70	XYZ
71	XYZ
72	XYZ
73	XYZ
74	XYZ
75	XYZ
76	XYZ
77	XYZ
78	XYZ
79	XYZ
80	XYZ
81	XYZ
82	XYZ
83	XYZ
84	XYZ
85	XYZ
86	XYZ
87	XYZ
88	XYZ
89	XYZ
90	XYZ
91	XYZ
92	XYZ
93	XYZ
94	XYZ
95	XYZ
96	XYZ
97	XYZ
98	XYZ
99	XYZ
100	XYZ
101	XYZ
102	XYZ
103	XYZ
104	XYZ
105	XYZ
106	XYZ
107	XYZ
108	XYZ
109	XYZ
110	XYZ
111	XYZ
112	XYZ
113	XYZ
114	XYZ
115	XYZ
116	XYZ
117	XYZ
118	XYZ
119	XYZ
120	XYZ
121	XYZ
122	XYZ
123	XYZ
124	XYZ
125	XYZ
126	XYZ
127	XYZ
128	XYZ
129	XYZ
130	XYZ
131	XYZ
132	XYZ
133	XYZ
134	XYZ
135	XYZ
136	XYZ
137	XYZ
138	XYZ
139	XYZ
140	XYZ
141	XYZ
142	XYZ
143	XYZ
144	XYZ
145	XYZ
146	XYZ
147	XYZ
148	XYZ
149	XYZ
150	XYZ
151	XYZ
152	XYZ
153	XYZ
154	XYZ
155	XYZ
156	XYZ
157	XYZ
158	XYZ
159	XYZ
160	XYZ
161	XYZ
162	XYZ
163	XYZ
164	XYZ
165	XYZ
166	XYZ
167	XYZ
168	XYZ
169	XYZ
170	XYZ
171	XYZ
172	XYZ
173	XYZ
174	XYZ
175	XYZ
176	XYZ
177	XYZ
178	XYZ
179	XYZ
180	XYZ
181	XYZ
182	XYZ
183	XYZ
184	XYZ
185	XYZ
186	XYZ
187	XYZ
188	XYZ
189	XYZ
190	XYZ
191	XYZ
192	XYZ
193	XYZ
194	XYZ
195	XYZ
196	XYZ
197	XYZ
198	XYZ
199	XYZ
200	XYZ
201	XYZ
202	XYZ
203	XYZ
204	XYZ
205	XYZ
206	XYZ
207	XYZ
208	XYZ
209	XYZ
210	XYZ
211	XYZ
212	XYZ
213	XYZ
214	XYZ
215	XYZ
216	XYZ
217	XYZ
218	XYZ
219	XYZ
220	XYZ
221	XYZ
222	XYZ
223	XYZ
224	XYZ
225	XYZ
226	XYZ
227	XYZ
228	XYZ
229	XYZ
230	XYZ
231	XYZ
232	XYZ
233	XYZ
234	XYZ
235	XYZ
236	XYZ
237	XYZ
238	XYZ
239	XYZ
240	XYZ
241	XYZ
242	XYZ
243	XYZ
244	XYZ
245	XYZ
246	XYZ
247	XYZ
248	XYZ
249	XYZ
250	XYZ
251	XYZ
252	XYZ
253	XYZ
254	XYZ
255	XYZ
256	XYZ
257	XYZ
258	XYZ
259	XYZ
260	XYZ
261	XYZ
262	XYZ
263	XYZ
264	XYZ
265	XYZ
266	XYZ
267	XYZ
268	XYZ
269	XYZ
270	XYZ
271	XYZ
272	XYZ
273	XYZ
274	XYZ
275	XYZ
276	XYZ
277	XYZ
278	XYZ
279	XYZ
280	XYZ
281	XYZ
282	XYZ
283	XYZ
284	XYZ
285	XYZ
286	XYZ
287	XYZ
288	XYZ
289	XYZ
290	XYZ
291	XYZ
292	XYZ
293	XYZ
294	XYZ
295	XYZ
296	XYZ
297	XYZ
298	XYZ
299	XYZ
300	XYZ
301	XYZ
302	XYZ
303	XYZ
304	XYZ
305	XYZ
306	XYZ
307	XYZ
308	XYZ
309	XYZ
310	XYZ
311	XYZ
312	XYZ
313	XYZ
314	XYZ
315	XYZ
316	XYZ
317	XYZ
318	XYZ
319	XYZ
320	XYZ
321	XYZ
322	XYZ
323	XYZ
324	XYZ
325	XYZ
326	XYZ
327	XYZ
328	XYZ
329	XYZ
330	XYZ
331	XYZ
332	XYZ
333	XYZ
334	XYZ
335	XYZ
336	XYZ
337	XYZ
338	XYZ
339	XYZ
340	XYZ
341	XYZ
342	XYZ
343	XYZ
344	XYZ
345	XYZ
346	XYZ
347	XYZ
348	XYZ
349	XYZ
350	XYZ
351	XYZ
352	XYZ
353	XYZ
354	XYZ
355	XYZ
356	XYZ
357	XYZ
358	XYZ
359	XYZ
360	XYZ
361	XYZ
362	XYZ
363	XYZ
364	XYZ
365	XYZ
366	XYZ
367	XYZ
368	XYZ
369	XYZ
370	XYZ
371	XYZ
372	XYZ
373	XYZ
374	XYZ
375	XYZ
376	XYZ
377	XYZ
378	XYZ
379	XYZ
380	XYZ
381	XYZ
382	XYZ
383	XYZ
384	XYZ
385	XYZ
386	XYZ
387	XYZ
388	XYZ
389	XYZ
390	XYZ
391	XYZ
392	XYZ
393	XYZ
394	XYZ
395	XYZ
396	XYZ
397	XYZ
398	XYZ
399	XYZ
400	XYZ
401	XYZ
402	XYZ
403	XYZ
404	XYZ
405	XYZ
406	XYZ
407	XYZ
408	XYZ
409	XYZ
410	XYZ
411	XYZ
412	XYZ
413	XYZ
414	XYZ
415	XYZ
416	XYZ
417	XYZ
418	XYZ
419	XYZ
420	XYZ
421	XYZ
422	XYZ
423	XYZ
424	XYZ
425	XYZ
426	XYZ
427	XYZ
428	XYZ
429	XYZ
430	XYZ
431	XYZ
432	XYZ
433	XYZ
434	XYZ
435	XYZ
436	XYZ
437	XYZ
438	XYZ
439	XYZ
440	XYZ
441	XYZ
442	XYZ
443	XYZ
444	XYZ
445	XYZ
446	XYZ
447	XYZ
448	XYZ
449	XYZ
450	XYZ
451	XYZ
452	XYZ
453	XYZ
454	XYZ
455	XYZ
456	XYZ
457	XYZ
458	XYZ
459	XYZ
460	XYZ
461	XYZ
462	XYZ
463	XYZ
464	XYZ
465	XYZ
466	XYZ
467	XYZ
468	XYZ
469	XYZ
470	XYZ
471	XYZ
472	XYZ
473	XYZ
474	XYZ
475	XYZ
476	XYZ
477	XYZ
478	XYZ
479	XYZ
480	XYZ
481	XYZ
482	XYZ
483	XYZ
484	XYZ
485	XYZ
486	XYZ
487	XYZ
488	XYZ
489	XYZ
490	XYZ
491	XYZ
492	XYZ
493	XYZ
494	XYZ
495	XYZ
496	XYZ
497	XYZ
498	XYZ
499	XYZ
500	XYZ
501	XYZ
502	XYZ
503	XYZ
504	XYZ
505	XYZ
506	XYZ
507	XYZ
508	XYZ
509	XYZ
510	XYZ
511	XYZ
512	XYZ
513	XYZ
514	XYZ
515	XYZ
516	XYZ
517	XYZ
518	XYZ
519	XYZ
520	XYZ
521	XYZ
522	XYZ
523	XYZ
524	XYZ
525	XYZ
526	XYZ
527	XYZ
528	XYZ
529	XYZ
530	XYZ
531	XYZ
532	XYZ
533	XYZ
534	XYZ
535	XYZ
536	XYZ
537	XYZ
538	XYZ
539	XYZ
540	XYZ
541	XYZ
542	XYZ
543	XYZ
544	XYZ
545	XYZ
546	XYZ
547	XYZ
548	XYZ
549	XYZ
550	XYZ
551	XYZ
552	XYZ
553	XYZ
554	XYZ
555	XYZ
556	XYZ
557	XYZ
558	XYZ
559	XYZ
560	XYZ
561	XYZ
562	XYZ
563	XYZ
564	XYZ
565	XYZ
566	XYZ
567	XYZ
568	XYZ
569	XYZ
570	XYZ
571	XYZ
572	XYZ
573	XYZ
574	XYZ
575	XYZ
576	XYZ
577	XYZ
578	XYZ
579	XYZ
580	XYZ
581	XYZ
582	XYZ
583	XYZ
584	XYZ
585	XYZ
586	XYZ
587	XYZ
588	XYZ
589	XYZ
590	XYZ
591	XYZ
592	XYZ
593	XYZ
594	XYZ
595	XYZ
596	XYZ
597	XYZ
598	XYZ
599	XYZ
600	XYZ
601	XYZ
602	XYZ
603	XYZ
604	XYZ
605	XYZ
606	XYZ
607	XYZ
608	XYZ
609	XYZ
610	XYZ
611	XYZ
612	XYZ
613	XYZ
614	XYZ
615	XYZ
616	XYZ
617	XYZ
618	XYZ
619	XYZ
620	XYZ
621	XYZ
622	XYZ
623	XYZ
624	XYZ
625	XYZ
626	XYZ
627	XYZ
628	XYZ
629	XYZ
630	XYZ
631	XYZ
632	XYZ
633	XYZ
634	XYZ
635	XYZ
636	XYZ
637	XYZ
638	XYZ
639	XYZ
640	XYZ
641	XYZ
642	XYZ
643	XYZ
644	XYZ
645	XYZ
646	XYZ
647	XYZ
648	XYZ
649	XYZ
650	XYZ
651	XYZ
652	XYZ
653	XYZ
654	XYZ
655	XYZ
656	XYZ
657	XYZ
658	XYZ
659	XYZ
660	XYZ
661	XYZ
662	XYZ
663	XYZ
664	XYZ
665	XYZ
666	XYZ
667	XYZ
668	XYZ
669	XYZ
670	XYZ
671	XYZ
672	XYZ
673	XYZ
674	XYZ
675	XYZ
676	XYZ
677	XYZ
678	XYZ
679	XYZ
680	XYZ
681	XYZ
682	XYZ
683	XYZ
684	XYZ
685	XYZ
686	XYZ
687	XYZ
688	XYZ
689	XYZ
690	XYZ
691	XYZ
692	XYZ
693	XYZ
694	XYZ
695	XYZ
696	XYZ
697	XYZ
698	XYZ
699	XYZ
700	XYZ
701	XYZ
702	XYZ
703	XYZ
704	XYZ
705	XYZ
706	XYZ
707	XYZ
708	XYZ
709	XYZ
710	XYZ
711	XYZ
712	XYZ
713	XYZ
714	XYZ
715	XYZ
716	XYZ
717	XYZ
718	XYZ
719	XYZ
720	XYZ
721	XYZ
722	XYZ
723	XYZ
724	XYZ
725	XYZ
726	XYZ
727	XYZ
728	XYZ
729	XYZ
730	XYZ
731	XYZ
732	XYZ
733	XYZ
734	XYZ
735	XYZ
736	XYZ
737	XYZ
738	XYZ
739	XYZ
740	XYZ
741	XYZ
742	XYZ
743	XYZ
744	XYZ
745	XYZ
746	XYZ
747	XYZ
748	XYZ
749	XYZ
750	XYZ
751	XYZ
752	XYZ
753	XYZ
754	XYZ
755	XYZ
756	XYZ
757	XYZ
758	XYZ
759	XYZ
760	XYZ
761	XYZ
762	XYZ
763	XYZ
764	XYZ
765	XYZ
766	XYZ
767	XYZ
768	XYZ
769	XYZ
770	XYZ
771	XYZ
772	XYZ
773	XYZ
774	XYZ
775	XYZ
776	XYZ
777	XYZ
778	XYZ
779	XYZ
780	XYZ
781	XYZ
782	XYZ
783	XYZ
784	XYZ
785	XYZ
786	XYZ
787	XYZ
788	XYZ
789	XYZ
790	XYZ
791	XYZ
792	XYZ
793	XYZ
794	XYZ
795	XYZ
796	XYZ
797	XYZ
798	XYZ
799	XYZ
800	XYZ
801	XYZ
802	XYZ
803	XYZ
804	XYZ
805	XYZ
806	XYZ
807	XYZ
808	XYZ
809	XYZ
810	XYZ
811	XYZ
812	XYZ
813	XYZ
814	XYZ
815	XYZ
816	XYZ
817	XYZ
818	XYZ
819	XYZ
820	XYZ
821	XYZ
822	XYZ
823	XYZ
824	XYZ
825	XYZ
826	XYZ
827	XYZ
828	XYZ
829	XYZ
830	XYZ
831	XYZ
832	XYZ
833	XYZ
834	XYZ
835	XYZ
836	XYZ
837	XYZ
838	XYZ
839	XYZ
840	XYZ
841	XYZ
842	XYZ
843	XYZ
844	XYZ
845	XYZ
846	XYZ
847	XYZ
848	XYZ
849	XYZ
850	XYZ
851	XYZ
852	XYZ
853	XYZ
854	XYZ
855	XYZ
856	XYZ
857	XYZ
858	XYZ
859	XYZ
860	XYZ
861	XYZ
862	XYZ
863	XYZ
864	XYZ
865	XYZ
866	XYZ
867	XYZ
868	XYZ
869	XYZ
870	XYZ
871	XYZ
872	XYZ
873	XYZ
874	XYZ
875	XYZ
876	XYZ
877	XYZ
878	XYZ
879	XYZ
880	XYZ
881	XYZ
882	XYZ
883	XYZ
884	XYZ
885	XYZ
886	XYZ
887	XYZ
888	XYZ
889	XYZ
890	XYZ
891	XYZ
892	XYZ
893	XYZ
894	XYZ
895	XYZ
896	XYZ
897	XYZ
898	XYZ
899	XYZ
900	XYZ
901	XYZ
902	XYZ
903	XYZ
904	XYZ
905	XYZ
906	XYZ
907	XYZ
908	XYZ
909	XYZ
910	XYZ
911	XYZ
912	XYZ
913	XYZ
914	XYZ
915	XYZ
916	XYZ
917	XYZ
918	XYZ
919	XYZ
920	XYZ
921	XYZ
922	XYZ
923	XYZ
924	XYZ
925	XYZ
926	XYZ
927	XYZ
928	XYZ
929	XYZ
930	XYZ
931	XYZ
932	XYZ
933	XYZ
934	XYZ
935	XYZ
936	XYZ
937	XYZ
938	XYZ
939	XYZ
940	XYZ
941	XYZ
942	XYZ
943	XYZ
944	XYZ
945	XYZ
946	XYZ
947	XYZ
948	XYZ
949	XYZ
950	XYZ
951	XYZ
952	XYZ
953	XYZ
954	XYZ
955	XYZ
956	XYZ
957	XYZ
958	XYZ
959	XYZ
960	XYZ
961	XYZ
962	XYZ
963	XYZ
964	XYZ
965	XYZ
966	XYZ
967	XYZ
968	XYZ
969	XYZ
970	XYZ
971	XYZ
972	XYZ
973	XYZ
974	XYZ
975	XYZ
976	XYZ
977	XYZ
978	XYZ
979	XYZ
980	XYZ
981	XYZ
982	XYZ
983	XYZ
984	XYZ
985	XYZ
986	XYZ
987	XYZ
988	XYZ
989	XYZ
990	XYZ
991	XYZ
992	XYZ
993	XYZ
994	XYZ
995	XYZ
996	XYZ
997	XYZ
998	XYZ
999	XYZ
1000	XYZ
1001	XYZ
1002	XYZ
1003	XYZ
1004	XYZ
1005	XYZ
1006	XYZ
1007	XYZ
1008	XYZ
1009	XYZ
1010	XYZ
1011	XYZ
1012	XYZ
1013	XYZ
1014	XYZ
1015	XYZ
1016	XYZ
1017	XYZ
1018	XYZ
1019	XYZ
1020	XYZ
1021	XYZ
1022	XYZ
1023	XYZ
1024	XYZ
1025	XYZ
1026	XYZ
1027	XYZ
1028	XYZ
1029	XYZ
1030	XYZ
1031	XYZ
1032	XYZ
1033	XYZ
1034	XYZ
1035	XYZ
1036	XYZ
1037	XYZ
1038	XYZ
1039	XYZ
1040	XYZ
1041	XYZ
1042	XYZ
1043	XYZ
1044	XYZ
1045	XYZ
1046	XYZ
1047	XYZ
1048	XYZ
1049	XYZ
1050	XYZ
1051	XYZ
1052	XYZ
1053	XYZ
1054	XYZ
1055	XYZ
1056	XYZ
1057	XYZ
1058	XYZ
1059	XYZ
1060	XYZ
1061	XYZ
1062	XYZ
1063	XYZ
1064	XYZ
1065	XYZ
1066	XYZ
1067	XYZ
1068	XYZ
1069	XYZ
1070	XYZ
1071	XYZ
1072	XYZ
1073	XYZ
1074	XYZ
1075	XYZ
1076	XYZ
1077	XYZ
1078	XYZ
1079	XYZ
1080	XYZ
1081	XYZ
1082	XYZ
1083	XYZ
1084	XYZ
1085	XYZ
1086	XYZ
1087	XYZ
1088	XYZ
1089	XYZ
1090	XYZ
1091	XYZ
1092	XYZ
1093	XYZ
1094	XYZ
1095	XYZ
1096	XYZ
1097	XYZ
1098	XYZ
1099	XYZ
1100	XYZ
1101	XYZ
1102	XYZ
1103	XYZ
1104	XYZ
1105	XYZ
1106	XYZ
1107	XYZ
1108	XYZ
1109	XYZ
1110	XYZ
1111	XYZ
1112	XYZ
1113	XYZ
1114	XYZ
1115	XYZ
1116	XYZ
1117	XYZ
1118	XYZ
1119	XYZ
1120	XYZ
1121	XYZ
1122	XYZ
1123	XYZ
1124	XYZ
1125	XYZ
1126	XYZ
1127	XYZ
1128	XYZ
1129	XYZ
1130	XYZ
1131	XYZ
1132	XYZ
1133	XYZ
1134	XYZ
1135	XYZ
1136	XYZ
1137	XYZ
1138	XYZ
1139	XYZ
1140	XYZ
1141	XYZ
1142	XYZ
1143	XYZ
1144	XYZ
1145	XYZ
1146	XYZ
1147	XYZ
1148	XYZ
1149	XYZ
1150	XYZ
1151	XYZ
1152	XYZ
1153	XYZ
1154	XYZ
1155	XYZ
1156	XYZ
1157	XYZ
1158	XYZ
1159	XYZ
1160	XYZ
1161	XYZ
1162	XYZ
1163	XYZ
1164	XYZ
1165	XYZ
1166	XYZ
1167	XYZ
1168	XYZ
1169	XYZ
1170	XYZ
1171	XYZ
1172	XYZ
1173	XYZ
1174	XYZ
1175	XYZ
1176	XYZ
1177	XYZ
1178	XYZ
1179	XYZ
1180	XYZ
1181	XYZ
1182	XYZ
1183	XYZ
1184	XYZ
1185	XYZ
1186	XYZ
1187	XYZ
1188	XYZ
1189	XYZ
1190	XYZ
1191	XYZ
1192	XYZ
1193	XYZ
1194	XYZ
1195	XYZ
1196	XYZ
1197	XYZ
1198	XYZ
1199	XYZ
1200	XYZ
1201	XYZ
1202	XYZ
1203	XYZ
1204	XYZ
1205	XYZ
1206	XYZ
1207	XYZ
1208	XYZ
1209	XYZ
1210	XYZ
1211	XYZ
1212	XYZ
1213	XYZ
1214	XYZ
1215	XYZ
1216	XYZ
1217	XYZ
1218	XYZ
1219	XYZ
1220	XYZ
1221	XYZ
1222	XYZ
1223	XYZ
1224	XYZ
1225	XYZ
1226	XYZ
1227	XYZ
1228	XYZ
1229	XYZ
1230	XYZ
1231	XYZ
1232	XYZ
1233	XYZ
1234	XYZ
1235	XYZ
1236	XYZ
1237	XYZ
1238	XYZ
1239	XYZ
1240	XYZ
1241	XYZ
1242	XYZ
1243	XYZ
1244	XYZ
1245	XYZ
1246	XYZ
1247	XYZ
1248	XYZ
1249	XYZ
1250	XYZ
1251	XYZ
1252	XYZ
1253	XYZ
1254	XYZ
1255	XYZ
1256	XYZ
1257	XYZ
1258	XYZ
1259	XYZ
1260	XYZ
1261	XYZ
1262	XYZ
1263	XYZ
1264	XYZ
1265	XYZ
1266	XYZ
1267	XYZ
1268	XYZ
1269	XYZ
1270	XYZ
1271	XYZ
1272	XYZ
1273	XYZ
1274	XYZ
1275	XYZ
1276	XYZ
1277	XYZ
1278	XYZ
1279	XYZ
1280	XYZ
1281	XYZ
1282	XYZ
1283	XYZ
1284	XYZ
1285	XYZ
1286	XYZ
1287	XYZ
1288	XYZ
1289	XYZ
1290	XYZ
1291	XYZ
1292	XYZ
1293	XYZ
1294	XYZ
1295	XYZ
1296	XYZ
1297	XYZ
1298	XYZ
1299	XYZ
1300	XYZ
1301	XYZ
1302	XYZ
1303	XYZ
1304	XYZ
1305	XYZ
1306	XYZ
1307	XYZ
1308	XYZ
1309	XYZ
1310	XYZ
1311	XYZ
1312	XYZ
1313	XYZ
1314	XYZ
1315	XYZ
1316	XYZ
1317	XYZ
1318	XYZ
1319	XYZ
1320	XYZ
1321	XYZ
1322	XYZ
1323	XYZ
1324	XYZ
1325	XYZ
1326	XYZ
1327	XYZ
1328	XYZ
1329	XYZ
1330	XYZ
1331	XYZ
1332	XYZ
1333	XYZ
1334	XYZ
1335	XYZ
1336	XYZ
1337	XYZ
1338	XYZ
1339	XYZ
1340	XYZ
1341	XYZ
1342	XYZ
1343	XYZ
1344	XYZ
1345	XYZ
1346	XYZ
1347	XYZ
1348	XYZ
1349	XYZ
1350	XYZ
1351	XYZ
1352	XYZ
1353	XYZ
1354	XYZ
1355	XYZ
1356	XYZ
1357	XYZ
1358	XYZ
1359	XYZ
1360	XYZ
1361	XYZ
1362	XYZ
1363	XYZ
1364	XYZ
1365	XYZ
1366	XYZ
1367	XYZ
1368	XYZ
1369	XYZ
1370	XYZ
1371	XYZ
1372	XYZ
1373	XYZ
1374	XYZ
1375	XYZ
1376	XYZ
1377	XYZ
1378	XYZ
1379	XYZ
1380	XYZ
1381	XYZ
1382	XYZ
1383	XYZ
1384	XYZ
1385	XYZ
1386	XYZ
1387	XYZ
1388	XYZ
1389	XYZ
1390	XYZ
1391	XYZ
1392	XYZ
1393	XYZ
1394	XYZ
1395	XYZ
1396	XYZ
1397	XYZ
1398	XYZ
1399	XYZ
1400	XYZ
1401	XYZ
1402	XYZ
1403	XYZ
1404	XYZ
1405	XYZ
1406	XYZ
1407	XYZ
1408	XYZ
1409	XYZ
1410	XYZ
1411	XYZ
1412	XYZ
1413	XYZ
1414	XYZ
1415	XYZ
1416	XYZ
1417	XYZ
1418	XYZ
1419	XYZ
1420	XYZ
1421	XYZ
1422	XYZ
1423	XYZ
1424	XYZ
1425	XYZ
1426	XYZ
1427	XYZ
1428	XYZ
1429	XYZ
1430	XYZ
1431	XYZ
1432	XYZ
1433	XYZ
1434	XYZ
1435	XYZ
1436	XYZ
1437	XYZ
1438	XYZ
1439	XYZ
1440	XYZ
1441	XYZ
1442	XYZ
1443	XYZ
1444	XYZ
1445	XYZ
1446	XYZ
1447	XYZ
1448	XYZ
1449	XYZ
1450	XYZ
1451	XYZ
1452	XYZ
1453	XYZ
1454	XYZ
1455	XYZ
1456	XYZ
1457	XYZ
1458	XYZ
1459	XYZ
1460	XYZ
1461	XYZ
1462	XYZ
1463	XYZ
1464	XYZ
1465	XYZ
1466	XYZ
1467	XYZ
1468	XYZ
1469	XYZ
1470	XYZ
1471	XYZ
1472	XYZ
1473	XYZ
1474	XYZ
1475	XYZ
1476	XYZ
1477	XYZ
1478	XYZ
1479	XYZ
1480	XYZ
1481	XYZ
1482	XYZ
1483	XYZ
1484	XYZ
1485	XYZ
1486	XYZ
1487	XYZ
1488	XYZ
1489	XYZ
1490	XYZ
1491	XYZ
1492	XYZ
1493	XYZ
1494	XYZ
1495	XYZ
1496	XYZ
1497	XYZ
1498	XYZ
1499	XYZ
1500	XYZ
1501	XYZ
1502	XYZ
1503	XYZ
1504	XYZ
1505	XYZ
1506	XYZ
1507	XYZ
1508	XYZ
1509	XYZ
1510	XYZ
1511	XYZ
1512	XYZ
1513	XYZ
1514	XYZ
1515	XYZ
1516	XYZ
1517	XYZ
1518	XYZ
1519	XYZ
1520	XYZ
1521	XYZ
1522	XYZ
1523	XYZ
1524	XYZ
1525	XYZ
1526	XYZ
1527	XYZ
1528	XYZ
1529	XYZ
1530	XYZ
1531	XYZ
1532	XYZ
1533	XYZ
1534	XYZ
1535	XYZ
1536	XYZ
1537	XYZ
1538	XYZ
1539	XYZ
1540	XYZ
1541	XYZ
1542	XYZ
1543	XYZ
1544	XYZ
1545	XYZ
1546	XYZ
1547	XYZ
1548	XYZ
1549	XYZ
1550	XYZ
1551	XYZ
1552	XYZ
1553	XYZ
1554	XYZ
1555	XYZ
1556	XYZ
1557	XYZ
1558	XYZ
1559	XYZ
1560	XYZ
1561	XYZ
1562	XYZ
1563	XYZ
1564	XYZ
1565	XYZ
1566	XYZ
1567	XYZ
1568	XYZ
1569	XYZ
1570	XYZ
1571	XYZ
1572	XYZ
1573	XYZ
1574	XYZ
1575	XYZ
1576	XYZ
1577	XYZ
1578	XYZ
1579	XYZ
1580	XYZ
1581	XYZ
1582	XYZ
1583	XYZ
1584	XYZ
1585	XYZ
1586	XYZ
1587	XYZ
1588	XYZ
1589	XYZ
1590	XYZ
1591	XYZ
1592	XYZ
1593	XYZ
1594	XYZ
1595	XYZ
1596	XYZ
1597	XYZ
1598	XYZ
1599	XYZ
1600	XYZ
1601	XYZ
1602	XYZ
1603	XYZ
1604	XYZ
1605	XYZ
1606	XYZ
1607	XYZ
1608	XYZ
1609	XYZ
1610	XYZ
1611	XYZ
1612	XYZ
1613	XYZ
1614	XYZ
1615	XYZ
1616	XYZ
1617	XYZ
1618	XYZ
1619	XYZ
1620	XYZ
1621	XYZ
1622	XYZ
1623	XYZ
1624	XYZ
1625	XYZ
1626	XYZ
1627	XYZ
1628	XYZ
1629	XYZ
1630	XYZ
1631	XYZ
1632	XYZ
1633	XYZ
1634	XYZ
1635	XYZ
1636	XYZ
1637	XYZ
1638	XYZ
1639	XYZ
1640	XYZ
1641	XYZ
1642	XYZ
1643	XYZ
1644	XYZ
1645	XYZ
1646	XYZ
1647	XYZ
1648	XYZ
1649	XYZ
1650	XYZ
1651	XYZ
1652	XYZ
1653	XYZ
1654	XYZ
1655	XYZ
1656	XYZ
1657	XYZ
1658	XYZ
1659	XYZ
1660	XYZ
1661	XYZ
1662	XYZ
1663	XYZ
1664	XYZ
1665	XYZ
1666	XYZ
1667	XYZ
1668	XYZ
1669	XYZ
1670	XYZ
1671	XYZ
1672	XYZ
1673	XYZ
1674	XYZ
1675	XYZ
1676	XYZ
1677	XYZ
1678	XYZ
1679	XYZ
1680	XYZ
1681	XYZ
1682	XYZ
1683	XYZ
1684	XYZ
1685	XYZ
1686	XYZ
1687	XYZ
1688	XYZ
1689	XYZ
1690	XYZ
1691	XYZ
1692	XYZ
1693	XYZ
1694	XYZ
1695	XYZ
1696	XYZ
1697	XYZ
1698	XYZ
1699	XYZ
1700	XYZ
1701	XYZ
1702	XYZ
1703	XYZ
1704	XYZ
1705	XYZ
1706	XYZ
1707	XYZ
1708	XYZ
1709	XYZ
1710	XYZ
1711	XYZ
1712	XYZ
1713	XYZ
1714	XYZ
1715	XYZ
1716	XYZ
1717	XYZ
1718	XYZ
1719	XYZ
1720	XYZ
1721	XYZ
1722	XYZ
1723	XYZ
1724	XYZ
1725	XYZ
1726	XYZ
1727	XYZ
1728	XYZ
1729	XYZ
1730	XYZ
1731	XYZ
1732	XYZ
1733	XYZ
1734	XYZ
1735	XYZ
1736	XYZ
1737	XYZ
1738	XYZ
1739	XYZ
1740	XYZ
1741	XYZ
1742	XYZ
1743	XYZ
1744	XYZ
1745	XYZ
1746	XYZ
1747	XYZ
1748	XYZ
1749	XYZ
1750	XYZ
1751	XYZ
1752	XYZ
1753	XYZ
1754	XYZ
1755	XYZ
1756	XYZ
1757	XYZ
1758	XYZ
1759	XYZ
1760	XYZ
1761	XYZ
1762	XYZ
1763	XYZ
1764	XYZ
1765	XYZ
1766	XYZ
1767	XYZ
1768	XYZ
1769	XYZ
1770	XYZ
1771	XYZ
1772	XYZ
1773	XYZ
1774	XYZ
1775	XYZ
1776	XYZ
1777	XYZ
1778	XYZ
1779	XYZ
1780	XYZ
1781	XYZ
1782	XYZ
1783	XYZ
1784	XYZ
1785	XYZ
1786	XYZ
1787	XYZ
1788	XYZ
1789	XYZ
1790	XYZ
1791	XYZ
1792	XYZ
1793	XYZ
1794	XYZ
1795	XYZ
1796	XYZ
1797	XYZ
1798	XYZ
1799	XYZ
1800	XYZ
1801	XYZ
1802	XYZ
1803	XYZ
1804	XYZ
1805	XYZ
1806	XYZ
1807	XYZ
1808	XYZ
1809	XYZ
1810	XYZ
1811	XYZ
1812	XYZ
1813	XYZ
1814	XYZ
1815	XYZ
1816	XYZ
1817	XYZ
1818	XYZ
1819	XYZ
1820	XYZ
1821	XYZ
1822	XYZ
1823	XYZ
1824	XYZ
1825	XYZ
1826	XYZ
1827	XYZ
1828	XYZ
1829	XYZ
1830	XYZ
1831	XYZ
1832	XYZ
1833	XYZ
1834	XYZ
1835	XYZ
1836	XYZ
1837	XYZ
1838	XYZ
1839	XYZ
1840	XYZ
1841	XYZ
1842	XYZ
1843	XYZ
1844	XYZ
1845	XYZ
1846	XYZ
1847	XYZ
1848	XYZ
1849	XYZ
1850	XYZ
1851	XYZ
1852	XYZ
1853	XYZ
1854	XYZ
1855	XYZ
1856	XYZ
1857	XYZ
1858	XYZ
1859	XYZ
1860	XYZ
1861	XYZ
1862	XYZ
1863	XYZ
1864	XYZ
1865	XYZ
1866	XYZ
1867	XYZ
1868	XYZ
1869	XYZ
1870	XYZ
1871	XYZ
1872	XYZ
1873	XYZ
1874	XYZ
1875	XYZ
1876	XYZ
1877	XYZ
1878	XYZ
1879	XYZ
1880	XYZ
1881	XYZ
1882	XYZ
1883	XYZ
1884	XYZ
1885	XYZ
1886	XYZ
1887	XYZ
1888	XYZ
1889	XYZ
1890	XYZ
1891	XYZ
1892	XYZ
1893	XYZ
1894	XYZ
1895	XYZ
1896	XYZ
1897	XYZ
1898	XYZ
1899	XYZ
1900	XYZ
1901	XYZ
1902	XYZ
1903	XYZ
1904	XYZ
1905	XYZ
1906	XYZ
1907	XYZ
1908	XYZ
1909	XYZ
1910	XYZ
1911	XYZ
1912	XYZ
1913	XYZ
1914	XYZ
1915	XYZ
1916	XYZ
1917	XYZ
1918	XYZ
1919	XYZ
1920	XYZ
1921	XYZ
1922	XYZ
1923	XYZ
1924	XYZ
1925	XYZ
1926	XYZ
1927	XYZ
1928	XYZ
1929	XYZ
1930	XYZ
1931	XYZ
1932	XYZ
1933	XYZ
1934	XYZ
1935	XYZ
1936	XYZ
1937	XYZ
1938	XYZ
1939	XYZ
1940	XYZ
1941	XYZ
1942	XYZ
1943	XYZ
1944	XYZ
1945	XYZ
1946	XYZ
1947	XYZ
1948	XYZ
1949	XYZ
1950	XYZ
1951	XYZ
1952	XYZ
1953	XYZ
1954	XYZ
1955	XYZ
1956	XYZ
1957	XYZ
1958	XYZ
1959	XYZ
1960	XYZ
1961	XYZ
1962	XYZ
1963	XYZ
1964	XYZ
1965	XYZ
1966	XYZ
1967	XYZ
1968	XYZ
1969	XYZ
1970	XYZ
1971	XYZ
1972	XYZ
1973	XYZ
1974	XYZ
1975	XYZ
1976	XYZ
1977	XYZ
1978	XYZ
1979	XYZ
1980	XYZ
1981	XYZ
1982	XYZ
1983	XYZ
1984	XYZ
1985	XYZ
1986	XYZ
1987	XYZ
1988	XYZ
1989	XYZ
1990	XYZ
1991	XYZ
1992	XYZ
1993	XYZ
1994	XYZ
1995	XYZ
1996	XYZ
1997	XYZ
1998	XYZ
1999	XYZ
2000	XYZ
2001	XYZ
2002	XYZ
2003	XYZ
2004	XYZ
2005	XYZ
2006	XYZ
2007	XYZ
2008	XYZ
2009	XYZ
2010	XYZ
2011	XYZ
2012	XYZ
2013	XYZ
2014	XYZ
2015	XYZ
2016	XYZ
2017	XYZ
2018	XYZ
2019	XYZ
2020	XYZ
2021	XYZ
2022	XYZ
2023	XYZ
2024	XYZ
2025	XYZ
2026	XYZ
2027	XYZ
2028	XYZ
2029	XYZ
2030	XYZ
2031	XYZ
2032	XYZ
2033	XYZ
2034	XYZ
2035	XYZ
2036	XYZ
2037	XYZ
2038	XYZ
2039	XYZ
2040	XYZ
2041	XYZ
2042	XYZ
2043	XYZ
2044	XYZ
2045	XYZ
2046	XYZ
2047	XYZ
2048	XYZ
2049	XYZ
2050	XYZ
2051	XYZ
2052	XYZ
2053	XYZ
2054	XYZ
2055	XYZ
2056	XYZ
2057	XYZ
2058	XYZ
2059	XYZ
2060	XYZ
2061	XYZ
2062	XYZ
2063	XYZ
2064	XYZ
2065	XYZ
2066	XYZ
2067	XYZ
2068	XYZ
2069	XYZ
2070	XYZ
2071	XYZ
2072	XYZ
2073	XYZ
2074	XYZ
2075	XYZ
2076	XYZ
2077	XYZ
2078	XYZ
2079	XYZ
2080	XYZ
2081	XYZ
2082	XYZ
2083	XYZ
2084	XYZ
2085	XYZ
2086	XYZ
2087	XYZ
2088	XYZ
2089	XYZ
2090	XYZ
2091	XYZ
2092	XYZ
2093	XYZ
2094	XYZ
2095	XYZ
2096	XYZ
2097	XYZ
2098	XYZ
2099	XYZ
2100	XYZ
2101	XYZ
2102	XYZ
2103	XYZ
2104	XYZ
2105	XYZ
2106	XYZ
2107	XYZ
2108	XYZ
2109	XYZ
2110	XYZ
2111	XYZ
2112	XYZ
2113	XYZ
2114	XYZ
2115	XYZ
2116	XYZ
2117	XYZ
2118	XYZ
2119	XYZ
2120	XYZ
2121	XYZ
2122	XYZ
2123	XYZ
2124	XYZ
2125	XYZ
2126	XYZ
2127	XYZ
2128	XYZ
2129	XYZ
2130	XYZ
2131	XYZ
2132	XYZ
2133	XYZ
2134	XYZ
2135	XYZ
2136	XYZ
2137	XYZ
2138	XYZ
2139	XYZ
2140	XYZ
2141	XYZ
2142	XYZ
2143	XYZ
2144	XYZ
2145	XYZ
2146	XYZ
2147	XYZ
2148	XYZ
2149	XYZ
2150	XYZ
2151	XYZ
2152	XYZ
2153	XYZ
2154	XYZ
2155	XYZ
2156	XYZ
2157	XYZ
2158	XYZ
2159	XYZ
2160	XYZ
2161	XYZ
2162	XYZ
2163	XYZ
2164	XYZ
2165	XYZ
2166	XYZ
2167	XYZ
2168	XYZ
2169	XYZ
2170	XYZ
2171	XYZ
2172	XYZ
2173	XYZ
2174	XYZ
2175	XYZ
2176	XYZ
2177	XYZ
2178	XYZ
2179	XYZ
2180	XYZ
2181	XYZ
2182	XYZ
2183	XYZ
2184	XYZ
2185	XYZ
2186    XYZ
2187    XYZ
2188    XYZ
2189    XYZ
2190    XYZ
endfixed
$end


$force_field_params
NumAtomTypes   3000
AtomType   -1   -0.35   1.77   -0.018
AtomType   -13   -0.35   1.77   -0.018
AtomType   -2   0.7   2.2   -0.047
AtomType   -3   -0.175   0.01   0
AtomType   -4    0.175   0.01   0
AtomType   -23   0.525   2.2   -0.047
AtomType   -22   0.35   2.2   -0.047
AtomType   -21   0.175   2.2   -0.047
AtomType   -111   0   1.34   -0.024
AtomType   -112   0   1.34   -0.035
AtomType   -121   0   2.05   -0.078
AtomType   -122   0   2.01   -0.056
AtomType   -912   0   2.175   -0.055
AtomType   -916   0   1.77   -0.1521
AtomType   -901   0   1.32   -0.022
AtomType   -801   0   0.2245   -0.046
AtomType    -31 0   1.9924  -0.07
AtomType    -32 0   2.09    -0.068
AtomType    -33 0   2.08    -0.064
AtomType    -34 0   1.87    -0.18
AtomType    -35 0   2.00    -0.032
AtomType    -41 0   0.2245  -0.046
AtomType    -42 0   0.87    -0.012
AtomType    -43 0   1.1 -0.046
AtomType    -44 0   1.3582  -0.03
AtomType    -45 0   1.26    -0.026
AtomType    -46 0   1.25    -0.031
AtomType    -47 0   1.34    -0.045
AtomType    -51 0   1.765   -0.1921
AtomType    -61 0   1.98    -0.07
AtomType    -62 0   1.89    -0.06
AtomType    -63 0   1.79    -0.18
Bond   -1   -2   304   1.682
Bond   -1   -3   204   1.489
Bond   -2   -3   100   1.45
Angle   -1   -2   -1   34   150
Angle   -2   -1   -2   30   121.5
Angle   -3   -1   -2   44   118
Angle   -1   -2   -3   30   109.5
Torsion   -2   -1   -2   -1   0.1   120   3
Torsion   -2   -1   -2   -3   0.3   120   3
Bond   -121   -122   222.5   1.528
Bond   -121   -121   222.5   1.528
Bond   -122   -122   222.5   1.528
Bond   -111   -121   309   1.089
Bond   -112   -122   309   1.089
Angle   -121   -122   -122   58   115
Angle   -121   -121   -122   58   115
Angle   -121   -121   -121   58   115
Angle   -122   -122   -122   58   115
Angle   -111   -121   -111   35.5   108.4
Angle   -111   -121   -121   35.5   108.4
Angle   -111   -121   -122   35.5   108.4
Angle   -112   -122   -112   35.5   108.4
Angle   -112   -122   -121   35.5   108.4
Angle   -112   -122   -122   35.5   108.4
Torsion   -111   -121   -122   -122   0.16   120   3
Torsion   -111   -121   -121   -121   0.16   120   3
Torsion   -111   -121   -121   -111   0.16   120   3
Torsion   -111   -121   -122   -112   0.16   120   3
Torsion   -112   -122   -122   -122   95.16   180   2
Torsion   -112   -122   -122   -112   95.16   180   2
Torsion   -121   -122   -122   -122   95.16   180   2
Torsion   -121   -122   -122   -112   95.16   180   2
Torsion   -122   -122   -122   -112   95.16   180   2
Torsion   -112   -122   -122   -121   95.16   180   2
Bond   -13   -1   304   1.682
Bond   -13   -121   222.5   1.55
Angle   -13   -121   -121   40   111
Angle   -13   -121   -1   34   150
Angle   -13   -121   -111   35.5   115
Torsion   -1   -13   -121   -121   0.2   120   3
Torsion   -1   -13   -121   -111   0.2   120   3
Bond   -901   -912   342.991   1.093
Bond   -801   -916   560.905   0.972
Bond   -916   -912   363.214   1.418
Bond   -912   -912   306.432   1.508
Angle   -916   -912   -912   71.39   108.133
Angle   -916   -912   -916   83.192   111.368
Angle   -916   -912   -901   56.205   108.577
Angle   -912   -912   -901   45.77   110.549
Angle   -912   -916   -912   86.143   106.926
Angle   -912   -912   -912   61.243   109.608
Angle   -912   -916   -801   57.069   106.503
Angle   -901   -912   -901   37.134   108.836
Torsion   -912   -916   -912   -912   -0.341   0   1
Torsion   -912   -916   -912   -912   0.378   180   2
Torsion   -912   -916   -912   -912   0.378   0   3
Torsion   -912   -916   -912   -901   0.285   0   1
Torsion   -912   -916   -912   -901   0.16   180   2
Torsion   -912   -916   -912   -901   0.285   0   3
Torsion   -912   -912   -912   -912   0.051   0   1
Torsion   -912   -912   -912   -912   0.341   180   2
Torsion   -912   -912   -912   -912   0.166   0   3
Torsion   -912   -912   -912   -916   -0.344   0   1
Torsion   -912   -912   -912   -916   0.878   180   2
Torsion   -912   -912   -912   -916   0.238   0   3
Torsion   -912   -912   -912   -901   0.32   0   1
Torsion   -912   -912   -912   -901   -0.315   180   2
Torsion   -912   -912   -912   -901   0.132   0   3
Torsion   -912   -912   -916   -801   0.135   180   2
Torsion   -912   -912   -916   -801   0.118   0   3
Torsion   -916   -912   -912   -916   0.204   0   1
Torsion   -916   -912   -912   -916   0.699   180   2
Torsion   -916   -912   -912   -916   0.48   0   3
Torsion   -916   -912   -912   -901   -0.327   0   1
Torsion   -916   -912   -912   -901   0.536   180   2
Torsion   -916   -912   -912   -901   0.14   0   3
Torsion   -916   -912   -916   -801   0.744   0   1
Torsion   -916   -912   -916   -801   -1.7   180   2
Torsion   -916   -912   -916   -801   -0.16   0   3
Torsion   -912   -916   -912   -916   0.115   0   1
Torsion   -912   -916   -912   -916   -0.355   180   2
Torsion   -912   -916   -912   -916   0.361   0   3
Torsion   -901   -912   -912   -901   0.142   0   1
Torsion   -901   -912   -912   -901   -0.693   180   2
Torsion   -901   -912   -912   -901   0.157   0   3
Torsion   -901   -912   -916   -801   0.298   0   1
Torsion   -901   -912   -916   -801   -0.138   180   2
Torsion   -901   -912   -916   -801   0.173   0   3
Imptor	-912   -912   -916   -916       0.000  0     0.00
Imptor	-912   -916   -916   -901     0.000  0     0.00
Imptor	-912   -912   -916   -912       0.000  0     0.00
Imptor	-912   -912   -916   -901     0.000  0     0.00
Imptor	-912   -912   -912   -916       0.000  0     0.00
Imptor	-912   -912   -912   -901     0.000  0     0.00
Imptor	-912   -916   -912   -901     0.000  0     0.00
$end

$molecule
0 1
  H     -0.8303629423     0.6184537799     -0.3763205539        0	 2	 0	 0	 0
  C     -0.0003749270     -0.0007561915     -0.0044426890       0	 1	 3	 4	 5
  H     0.9603317953     0.3231991640     -0.4340103387         0	 2	 0	 0	 0
  H     0.0588063264     0.1285873628     1.0834032334          0	 2	 0	 0	 0
  H     -0.1843109876     -1.0612364645     -0.2201740041       0	 2	 0	 0	 0
  H     -0.1085809487     0.0848876733     -2.1835610362        0	 10	 0	 0	 0
  Al     -1.5356257563     0.7820704866     -3.9578080595       0	 9	 10	 11	 8
  O     -2.4051327824     -0.4485579229     -4.7721487871       0	 13	 7	 0	 0
  O     -2.2008548613     1.3451933678     -2.4940118337        0	 14	 7	 0	 0
  O     -0.0912928503     -0.0781177681     -3.1458932047       0	 12	 6	 7	 0
  O     -0.8372082198     1.9861898206     -4.9532074280        0	 7	 15	 0	 0
  Si     0.9324587184     -1.3133364218     -3.6690710833       0	 17	 10	 18	 16
  Si     -2.7098706945     -0.9137474858     -6.2872893155      0	 60	 19	 20	 8
  Si     -3.2909327780     2.2688842697     -1.7854391649       0	 9	 44	 21	 22
  Si     -1.3485967883     3.3290205126     -5.6853609570       0	 11	 61	 23	 24
  O     0.7861937969     -2.4060134187     -2.4895688267        0	 25	 12	 0	 0
  O     0.4509554610     -1.8388689953     -5.1116931129        0	 26	 12	 0	 0
  O     2.4160159586     -0.6748235272     -3.7072575313        0	 27	 12	 0	 0
  O     -1.7445572942     -2.1956457666     -6.6646223851       0	 26	 13	 0	 0
  O     -2.3946172079     0.2900274111     -7.3567310825        0	 28	 13	 0	 0
  O     -3.2403558958     3.8326945858     -2.2666337179        0	 29	 14	 0	 0
  O     -2.9481288907     2.2486217217     -0.1956221677        0	 30	 14	 0	 0
  O     -1.9003242969     2.9765527921     -7.1888291391        0	 28	 15	 0	 0
  O     -2.5977851355     4.0205731688     -4.8539905111        0	 29	 15	 0	 0
  Si     0.8957780803     -3.9121172777     -1.8502757483       0	 68	 16	 38	 32
  Si     -0.4224636752     -2.9077749573     -6.0571814563      0	 17	 19	 70	 71
  Si     3.9836653199     -1.0527467689     -3.3722630237       0	 74	 18	 75	 39
  Si     -2.6535741004     1.7742265295     -8.0045117469       0	 20	 62	 23	 72
  Si     -3.2581607436     4.8055879301     -3.5824200830       0	 73	 21	 47	 24
  Si     -3.5676346915     2.2076048986     1.2856563818        0	 49	 37	 22	 48
  Si     0.5598607155     -3.8896444128     1.2199107564        0	 65	 35	 33	 32
  O     0.2115523608     -3.8999863163     -0.3760716901        0	 25	 31	 0	 0
  O     2.0882710950     -3.3507477389     1.4559893642         0	 43	 31	 0	 0
  O     4.3641416034     -3.6204526079     0.0359610601         0	 43	 40	 0	 0
  O     -0.4828459428     -2.8772224764     1.9322961044        0	 42	 31	 0	 0
  O     -2.6636990645     -1.6956035092     2.8017162496        0	 41	 42	 0	 0
  O     -3.2988343282     0.7193786387     1.9051493466         0	 41	 30	 0	 0
  O     2.4845895707     -4.2939436778     -1.7511094420        0	 25	 40	 0	 0
  O     4.0394938886     -2.1332981802     -2.1429898220        0	 27	 40	 0	 0
  Si     3.9875538847     -3.6601009392     -1.5461459597       0	 34	 69	 38	 39
  Si     -3.6127372199     -0.3915680523     3.0563114268       0	 66	 36	 37	 46
  Si     -1.3055771118     -2.4517216172     3.2695068576       0	 35	 36	 45	 67
  Si     3.6953455306     -3.6864849161     1.5312405319        0	 33	 34	 63	 64
  O     -4.8002010797     1.6740417880     -2.0534128490        0	 50	 14	 0	 0
  O     -0.3542864258     -1.4620650626     4.1619269891        0	 42	 55	 0	 0
  O     -3.2832469936     0.2526845506     4.5301463542         0	 41	 57	 0	 0
  O     -4.8103376031     5.1933977449     -3.9297065734        0	 29	 53	 0	 0
  O     -5.1697198691     2.5205927458     1.2896541040         0	 54	 30	 0	 0
  O     -2.8036645812     3.3384562879     2.1585702603         0	 59	 30	 0	 0
  Si     -6.3969783397     2.0286654913     -2.1204610650       0	 52	 76	 44	 51
  O     -6.5998724162     3.5293723538     -2.7361146097        0	 50	 53	 0	 0
  O     -7.0326692364     1.9847789088     -0.6179769895        0	 50	 54	 0	 0
  Si     -6.3463639289     4.6249933148     -3.9299609224       0	 82	 51	 77	 47
  Si     -6.6904853973     1.9774035152     0.9788849009        0	 83	 52	 78	 48
  Si     -0.0314889424     -0.8160781735     5.6397546331       0	 79	 45	 80	 56
  O     -0.9975810399     0.4681827876     5.9296678882         0	 57	 55	 0	 0
  Si     -2.3388761578     1.2479597681     5.4300775319        0	 81	 58	 46	 56
  O     -1.8825017700     2.5501842939     4.5552878294         0	 57	 59	 0	 0
  Si     -2.3292194043     3.8312818796     3.6354102092        0	 49	 58	 84	 85
  O     -4.1833186099     -1.4547947863     -6.4191678808      -1	 13	 86	 0	 0
  O     -0.1479753897     4.3446390763     -5.8037980990       -1	 102	 15	 0	 0
  O     -4.2229574835     2.0663733535     -7.9788305657       -1	 28	 101	 0	 0
  O     4.4172810257     -2.5921669380     2.4169487151        -1	 43	 151	 0	 0
  O     3.8960514050     -5.1537911395     2.1271433786        -1	 43	 295	 0	 0
  O     0.3950982097     -5.3717167055     1.7848201802        -1	 292	 31	 0	 0
  O     -5.1105051118     -0.8841042165     2.9788001689       -1	 41	 196	 0	 0
  O     -1.7058460833     -3.7507694099     4.1037684208       -1	 42	 269	 0	 0
  O     0.1030123397     -4.9050338639     -2.7714183968       -1	 25	 375	 0	 0
  O     5.0029756915     -4.6000666540     -2.2933920888       -1	 240	 40	 0	 0
  O     0.4484320516     -3.3303640859     -7.3101760806       -1	 26	 244	 0	 0
  O     -0.7751596685     -4.1827691379     -5.1435125327      -1	 26	 375	 0	 0
  O     -2.0847153081     1.7990313333     -9.4841802405       -1	 282	 28	 0	 0
  O     -2.4884707883     6.1471840995     -3.2234640646       -1	 29	 304	 0	 0
  O     4.7349226692     0.2886344360     -2.9727993523        -1	 27	 381	 0	 0
  O     4.5966398707     -1.6938897038     -4.6928542650       -1	 385	 27	 0	 0
  O     -7.1523088317     0.9313577015     -2.9832418968       -1	 50	 87	 0	 0
  O     -6.6200429943     3.9159645209     -5.3336257404       -1	 89	 53	 0	 0
  O     -6.8282952478     0.4868329580     1.5341554678        -1	 196	 54	 0	 0
  O     1.4751454370     -0.3230611592     5.6622234558        -1	 207	 55	 0	 0
  O     -0.3066237649     -1.9121535309     6.7644783924       -1	 55	 272	 0	 0
  O     -3.1511041808     1.6904827375     6.7032241523        -1	 57	 223	 0	 0
  O     -7.3321725874     5.8471199800     -3.6970634790       -1	 226	 53	 0	 0
  O     -7.7064344046     2.9599283230     1.6858786931        -1	 230	 54	 0	 0
  O     -3.5574400016     4.5966596877     4.3037619761        -1	 369	 59	 0	 0
  O     -1.0786618045     4.7766388043     3.4434828545        -1	 59	 371	 0	 0
  Si     -5.7404897350     -1.0219419524     -6.5374113216     -23	 90	 60	 93	 94
  Si     -7.5739650429     0.4186576887     -4.4554146912      -23	 90	 92	 76	 91
  Si     -9.6200095180     -1.9210529593     -4.6751055867     -2	 97	 91	 95	 96
  Si     -7.5673114048     2.9842182533     -6.2409825893      -23	 98	 99	 92	 77
  O     -6.3307290156     -0.3737170460     -5.1487461128      -1	 86	 87	 0	 0
  O     -8.8610161621     -0.5400391135     -4.2724260079      -1	 87	 88	 0	 0
  O     -8.0315432498     1.6626161424     -5.3935850115       -1	 89	 87	 0	 0
  O     -6.5089095145     -2.3597992676     -6.8807389300      -1	 100	 86	 0	 0
  O     -5.8977206570     0.0539982648     -7.7125866644       -1	 101	 86	 0	 0
  O     -9.4591999130     -2.9712814078     -3.4686237273      -1	 103	 88	 0	 0
  O     -11.1778884570     -1.6014361812     -4.9132910746     -1	 104	 88	 0	 0
  O     -8.9870804381     -2.5402649979     -6.0210878418      -1	 100	 88	 0	 0
  O     -6.7749614059     2.5281855776     -7.5608407930       -1	 89	 101	 0	 0
  O     -8.8879938993     3.7983279018     -6.6584322615       -1	 89	 105	 0	 0
  Si     -7.7746790977     -3.3421330273     -6.7114027360     -2	 97	 106	 107	 93
  Si     -5.7176337637     1.5504090090     -8.2775438270      -23	 108	 98	 62	 94
  Si     0.6217982937     5.7072544744     -5.4273917320       -23	 305	 61	 350	 351
  Si     -9.6386795328     -4.4681787657     -2.9042945982     -2	 329	 257	 95	 330
  Si     -12.7014331768     -2.1122386072     -4.9780086783    -2	 365	 332	 360	 96
  Si     -9.8782735773     5.0530185140     -6.4544944593      -2	 99	 229	 358	 359
  O     -8.2357528682     -3.8705419600     -8.1585658152      -1	 100	 109	 0	 0
  O     -7.3583674441     -4.5930636687     -5.7870331467      -1	 100	 110	 0	 0
  O     -5.9805847224     1.5561241396     -9.8673702737       -1	 101	 111	 0	 0
  Si     -9.0071480286     -4.9618884967     -9.0540334268     -2	 106	 387	 388	 392
  Si     -7.7882866099     -5.8960518841     -4.9463559069     -2	 329	 107	 404	 192
  Si     -5.4190861267     1.6126056258     -11.3744579184     -2	 193	 194	 195	 108
  O     -8.9553225734     -8.3315684297     1.7625952195       -1	 115	 308	 0	 0
  O     -6.8430766639     -9.6019677366     0.8596252206       -1	 115	 142	 0	 0
  O     -8.0667802080     -10.4552077538     3.0268275898      -1	 115	 116	 0	 0
  Si     -7.6367492182     -9.1513845732     2.1856115287      -2	 113	 114	 124	 112
  Si     -7.6505360409     -11.7060470262     3.9494688570     -2	 114	 123	 117	 122
  O     -8.9161263136     -12.6876371897     4.1199945518      -1	 116	 118	 0	 0
  Si     -9.6860118211     -14.0510875531     3.7441270061     -2	 121	 117	 119	 120
  O     -9.5268197216     -15.1027563010     4.9517530740      -1	 1580	 118	 0	 0
  O     -11.2460037150     -13.7315894954     3.5071749390     -1	 870	 118	 0	 0
  O     -9.0553075202     -14.6712532774     2.3999169930      -1	 147	 118	 0	 0
  O     -7.1886081999     -11.1774724799     5.3989217257      -1	 116	 287	 0	 0
  O     -6.4373481165     -12.5076580731     3.2597154302      -1	 145	 116	 0	 0
  O     -6.6876628029     -8.2155103723     3.0867510610       -1	 115	 285	 0	 0
  Si     -5.4872013847     -10.5175476884     -2.9539919048    -2	 129	 126	 127	 128
  O     -6.0488118045     -10.5748641399     -1.4463654389     -1	 125	 142	 0	 0
  O     -5.7367596508     -9.0477566374     -3.5602822133      -1	 185	 125	 0	 0
  O     -3.9105696290     -10.8422061601     -2.9517151137     -1	 338	 125	 0	 0
  O     -6.2579217851     -11.6094722078     -3.8483592278     -1	 130	 125	 0	 0
  Si     -6.7190630421     -12.1377897716     -5.2972506291    -2	 129	 131	 132	 137
  O     -7.1354865197     -10.8876940955     -6.2210813972     -1	 130	 187	 0	 0
  O     -5.5066617017     -12.9396578010     -5.9875655233     -1	 130	 133	 0	 0
  Si     -4.8759574008     -13.5598235253     -7.3317755363    -2	 132	 134	 135	 136
  O     -5.6450563243     -14.9230169061     -7.7070816147     -1	 133	 776	 0	 0
  O     -3.3173593643     -13.8790919519     -7.0947569032     -1	 348	 133	 0	 0
  O     -5.0337556428     -12.5083844085     -8.5394681704     -1	 133	 190	 0	 0
  O     -7.9854398988     -13.1196369176     -5.1272864017     -1	 130	 138	 0	 0
  Si     -8.7553254063     -14.4830872810     -5.5031539474    -2	 137	 139	 140	 141
  O     -8.1238345214     -15.1029960227     -6.8468024931     -1	 138	 776	 0	 0
  O     -10.3153173002     -14.1635892234     -5.7401060145    -1	 138	 1907	 0	 0
  O     -8.5961333068     -15.5347560290     -4.2955278794     -1	 138	 1654	 0	 0
  Si     -5.7857490218     -10.5797443052     0.1429221865     -2	 113	 126	 143	 144
  O     -4.2905772921     -10.0651015397     0.4415462357      -1	 397	 142	 0	 0
  O     -5.9658359150     -12.0761550494     0.7078793491      -1	 145	 142	 0	 0
  Si     -5.8066438156     -13.1278237974     1.9155054171     -2	 146	 123	 150	 144
  O     -6.5765293230     -14.4912741608     1.5396378714      -1	 145	 147	 0	 0
  Si     -7.8421195958     -15.4728643242     1.7101635662     -2	 121	 146	 148	 149
  O     -8.3030815423     -16.0004382916     0.2624616657      -1	 1451	 147	 0	 0
  O     -7.4258754286     -16.7237035966     2.6328048334      -1	 147	 812	 0	 0
  O     -4.2480457791     -13.4470922239     2.1525240503      -1	 145	 399	 0	 0
  Si     4.8782429723     -2.0645929706     3.8646506156          -23	 153	 154	 63	 152
  O     3.6659534559     -1.2618899759     4.5544266885           -1	 207	 151	 0	 0
  O     5.2952737233     -3.3151752604     4.7878533502           -1	 297	 151	 0	 0
  O     6.1438332450     -1.0830028072     3.6941249208           -1	 963	 151	 0	 0
  Si     -2.3943912815     -7.7786489371     -4.4262131164     -2	 156	 157	 158	 159
  O     -1.6245057741     -6.4151985737     -4.0503455706      -1	 155	 375	 0	 0
  O     -3.9544949995     -7.4599858448     -4.6626263622      -1	 185	 155	 0	 0
  O     -2.2358064555     -8.8298310714     -3.2179590149      -1	 338	 155	 0	 0
  O     -1.7636869806     -8.3988146614     -5.7704231294      -1	 155	 160	 0	 0
  Si     -0.5504990562     -9.2004257083     -6.4601765562     -2	 161	 167	 166	 159
  O     -1.0115728268     -9.7288346410     -7.9073396355      -1	 162	 160	 0	 0
  Si     -1.7831472976     -10.8209247740     -8.8039967479    -2	 161	 163	 164	 165
  O     -3.3598908773     -10.4971012676     -8.8057347178     -1	 162	 190	 0	 0
  O     -1.2216487019     -10.7644432878     -10.3110843926    -1	 162	 1327	 0	 0
  O     -1.5341963049     -12.2902292113     -8.1970784059     -1	 162	 348	 0	 0
  O     0.7149793925     -8.2196705101     -6.6301634298       -1	 377	 160	 0	 0
  O     -0.1349739866     -10.4516133322     -5.5363684343     -1	 341	 160	 0	 0
  Si     -8.7189730247     -5.4640521561     4.3009250466      -2	 169	 170	 171	 184
  O     -9.6674521665     -6.4004129707     3.3991574809       -1	 308	 168	 0	 0
  O     -7.3997923960     -6.2843549133     4.7233133224       -1	 285	 168	 0	 0
  O     -9.5114310320     -5.0144422201     5.6256552878       -1	 172	 168	 0	 0
  Si     -10.5693659476     -4.0361790378     6.3429863553     -2	 179	 178	 171	 173
  O     -12.0646495013     -4.5516567686     6.0449011274      -1	 172	 174	 0	 0
  Si     -13.6412812570     -4.2269982969     6.0426243363     -2	 177	 173	 175	 176
  O     -14.4127882413     -5.3191797989     5.1476955459      -1	 317	 174	 0	 0
  O     -13.8908395231     -2.7572072459     5.4363340278      -1	 356	 174	 0	 0
  O     -14.2028916768     -4.2843147484     7.5502508022      -1	 1402	 174	 0	 0
  O     -10.3906729118     -2.5395386625     5.7780957588      -1	 354	 172	 0	 0
  O     -10.3078088464     -4.0416645373     7.9328793681      -1	 172	 180	 0	 0
  Si     -10.8693074421     -4.0981460235     9.4399670127     -2	 179	 181	 182	 183
  O     -10.6189625920     -5.5676800919     10.0468187886     -1	 180	 1213	 0	 0
  O     -12.4452644379     -3.7740655345     9.4387905102      -1	 1402	 180	 0	 0
  O     -10.0970138738     -3.0057075388     10.3354572704     -1	 180	 566	 0	 0
  O     -8.2890538589     -4.1610639407     3.4602478068       -1	 352	 168	 0	 0
  Si     -5.4780397193     -7.9707882708     -4.7273439659     -2	 186	 157	 127	 192
  O     -5.7569763881     -8.6475101003     -6.1605298925      -1	 185	 187	 0	 0
  Si     -6.7060628034     -9.5833843011     -7.0616694248     -2	 186	 131	 188	 189
  O     -8.0260300160     -8.7633385266     -7.4846191679      -1	 187	 405	 0	 0
  O     -5.9123902491     -10.0339674645     -8.3876557329     -1	 187	 190	 0	 0
  Si     -4.8550626070     -11.0117440332     -9.1043587669    -2	 163	 189	 191	 136
  O     -5.1181253897     -11.0068638679     -10.6936463924    -1	 972	 190	 0	 0
  O     -6.4683193972     -6.7160976586     -4.5234061637      -1	 185	 110	 0	 0
  O     -6.1896947030     0.5215160717     -12.2693640626      -1	 703	 111	 0	 0
  O     -5.6686443928     3.0823966768     -11.9807482269      -1	 1057	 111	 0	 0
  O     -3.8423425470     1.2887821194     -11.3727199485      -1	 282	 111	 0	 0
  Si     -6.6692149724     -0.5656707552     2.7423203570      -22	 66	 197	 78	 206
  O     -7.3013131307     0.0547246002     4.0865969362        -1	 196	 198	 0	 0
  Si     -8.5136026471     0.8574275949     4.7763730091       -2	 201	 197	 199	 200
  O     -9.7785856463     -0.1246491822     4.9462706704       -1	 354	 198	 0	 0
  O     -8.9300261247     2.1075232710     3.8525422410        -1	 198	 230	 0	 0
  O     -8.0518541166     1.3852585450     6.2246363770        -1	 202	 198	 0	 0
  Si     -7.2804589563     2.4766050817     7.1201039886       -2	 201	 203	 204	 205
  O     -5.7051092340     2.1530112064     7.1219085245        -1	 202	 223	 0	 0
  O     -7.5308038064     3.9461391501     6.5132522127        -1	 202	 237	 0	 0
  O     -7.8419575520     2.4201235955     8.6271916332        -1	 1322	 202	 0	 0
  O     -7.4404943372     -1.9288914875     2.3665193774       -1	 196	 352	 0	 0
  Si     3.0352491550     -0.6417242516     5.8986367016          -23	 209	 208	 79	 152
  O     3.1936546704     -1.6936499821     7.1057013022           -1	 207	 279	 0	 0
  O     3.8051346624     0.7217261118     6.2745042473            -1	 1796	 207	 0	 0
  Si     -3.3256849698     -7.3461625955     4.8216958706      -2	 211	 212	 221	 222
  O     -4.8850695902     -7.0271511515     4.5841157700       -1	 210	 285	 0	 0
  O     -3.1664928703     -8.3978313434     6.0293219385       -1	 210	 213	 0	 0
  Si     -3.3459724901     -9.8947287013     6.5936510677      -2	 219	 220	 214	 212
  O     -3.0835169809     -9.8991222529     8.1835667266       -1	 213	 215	 0	 0
  Si     -3.6451274007     -9.9564387044     9.6911931925      -2	 217	 218	 214	 216
  O     -2.8736204163     -8.8642572024     10.5861219828      -1	 1611	 215	 0	 0
  O     -3.3955691345     -11.4262297554     10.2974835010     -1	 1419	 215	 0	 0
  O     -5.2218709804     -9.6326151980     9.6894552226       -1	 289	 215	 0	 0
  O     -4.8411442198     -10.4093714669     6.2950270185      -1	 213	 287	 0	 0
  O     -2.2880375745     -10.8729918837     5.8763200002      -1	 321	 213	 0	 0
  O     -2.5551921889     -5.9831988458     5.1969353828       -1	 210	 269	 0	 0
  O     -2.6943733954     -7.9668149335     3.4768578240       -1	 210	 319	 0	 0
  Si     -4.2098256803     2.6684889372     7.4199937524       -23	 81	 225	 203	 224
  O     -4.0298506111     4.1640647161     6.8555754111        -1	 369	 223	 0	 0
  O     -3.9468747216     2.6627738066     9.0098201991        -1	 459	 223	 0	 0
  Si     -8.6507459426     6.6669361234     -4.1200797882      -23	 82	 227	 228	 229
  O     -9.4439230475     7.1161977078     -2.7941826923       -1	 226	 1318	 0	 0
  O     -8.2208267768     7.9699243387     -4.9607570280       -1	 226	 762	 0	 0
  O     -9.5993369085     5.7297403436     -5.0213085327       -1	 105	 226	 0	 0
  Si     -8.5001069589     3.4105114864     3.0118650012       -23	 83	 236	 231	 200
  O     -9.8192875876     4.2308142435     2.5894767255        -1	 230	 232	 0	 0
  Si     -10.8095672655     5.4855048557     2.7934145276      -2	 233	 234	 235	 231
  O     -10.5306305967     6.1622266852     4.2266004542       -1	 1127	 232	 0	 0
  O     -12.3346851533     4.9741884645     2.7275739892       -1	 1811	 232	 0	 0
  O     -10.5507355100     6.5633081876     1.6258139538       -1	 689	 232	 0	 0
  O     -7.5515159931     4.3477072662     3.9130937457        -1	 237	 230	 0	 0
  Si     -7.2725793243     5.0244290957     5.3462796723       -2	 204	 238	 239	 236
  O     -8.2628590022     6.2791197079     5.5502174745        -1	 237	 1127	 0	 0
  O     -5.7490346044     5.5352315217     5.4109972760        -1	 369	 237	 0	 0
  Si     5.7960409724     -5.0501632037     -3.6187503635      -23	 241	 242	 243	 69
  O     4.8474500065     -5.9873589835     -4.5199791079       -1	 379	 240	 0	 0
  O     6.2259601381     -3.7471749884     -4.4594276033       -1	 385	 240	 0	 0
  O     7.1158963610     -5.8710439435     -3.1952617990       -1	 584	 240	 0	 0
  Si     1.5057596937     -4.3081406546     -8.0268791146      -23	 250	 245	 70	 255
  O     1.2428087351     -4.3024255240     -9.6167055613       -1	 244	 246	 0	 0
  Si     1.8043073308     -4.2459440378     -11.1237932060     -2	 249	 245	 247	 248
  O     1.5547490647     -2.7761529868     -11.7300835145      -1	 859	 246	 0	 0
  O     1.0336987545     -5.3370335919     -12.0186993502      -1	 1956	 246	 0	 0
  O     3.3810509105     -4.5697675442     -11.1220552361      -1	 525	 246	 0	 0
  O     3.0004359740     -3.7921763100     -7.7281658533       -1	 251	 244	 0	 0
  Si     4.5771795537     -4.1159998164     -7.7264278834      -2	 250	 252	 253	 254
  O     4.8267378198     -5.5857908674     -7.1201375749       -1	 251	 379	 0	 0
  O     5.3479674405     -3.0241666660     -6.8303322384       -1	 385	 251	 0	 0
  O     5.1386781494     -4.0595183302     -9.2335155281       -1	 251	 525	 0	 0
  O     1.3257846245     -5.8037164335     -7.4624607733       -1	 377	 244	 0	 0
  Si     -9.9378344434     -4.5298887688     0.1932475267      -2	 257	 258	 267	 268
  O     -9.3763358476     -4.4734072826     -1.3138401180      -1	 103	 256	 0	 0
  O     -11.5139707496     -4.2065518761     0.1908815233      -1	 259	 256	 0	 0
  Si     -13.0091424793     -4.7211946417     -0.1077425258    -2	 258	 260	 261	 266
  O     -13.2722052620     -4.7163144764     -1.6970301513     -1	 259	 331	 0	 0
  O     -14.0664701214     -3.7434180730     0.6089605082      -1	 259	 262	 0	 0
  Si     -14.8601426757     -3.2928349096     1.9349468163     -2	 265	 261	 263	 264
  O     -16.1801098883     -2.4727891351     1.5119970732      -1	 981	 262	 0	 0
  O     -13.9110562604     -2.3569607088     2.8360863486      -1	 356	 262	 0	 0
  O     -15.2901736655     -4.5966580903     2.7761628774      -1	 317	 262	 0	 0
  O     -13.1892293725     -6.2176053859     0.4572146368      -1	 259	 310	 0	 0
  O     -9.1664392830     -3.4385422321     1.0887151383       -1	 256	 352	 0	 0
  O     -9.6882761772     -5.9996798198     0.7995378352       -1	 308	 256	 0	 0
  Si     -1.2902091896     -5.0011220686     5.0270377214      -23	 67	 221	 270	 271
  O     -0.0779196732     -5.8038250634     4.3372616486       -1	 292	 269	 0	 0
  O     -0.8284606591     -4.4732911186     6.4753010893       -1	 269	 272	 0	 0
  Si     -0.0570654988     -3.3819445819     7.3707687009      -23	 273	 278	 271	 80
  O     -0.6185640945     -3.4384260681     8.8778563456       -1	 274	 272	 0	 0
  Si     -0.3561085853     -3.4428196197     10.4677720045     -2	 273	 275	 276	 277
  O     1.1390631444     -2.9281768541     10.7663960536          -1	 274	 1750	 0	 0
  O     -1.4136155379     -2.4657866474     11.1832855377      -1	 569	 274	 0	 0
  O     -0.5355882051     -4.9397169776     11.0321011336      -1	 274	 654	 0	 0
  O     1.5196780809     -3.7057680883     7.3725066708        -1	 279	 272	 0	 0
  Si     3.0143543611     -3.1898037437     7.6712199322          -2	 281	 208	 278	 280
  O     4.0722892767     -4.1680669261     6.9538888647           -1	 297	 279	 0	 0
  O     3.2765187359     -3.1957758569     9.2604849115           -1	 1750	 279	 0	 0
  Si     -2.3471708173     1.8034248850     -11.0740958993     -23	 284	 195	 283	 72
  O     -1.2892359017     0.8251617026     -11.7914269668      -1	 282	 615	 0	 0
  O     -2.1684777815     3.3000652602     -11.6389864959      -1	 1633	 282	 0	 0
  Si     -6.4087261341     -7.5387885428     4.5199369876      -2	 170	 211	 124	 286
  O     -6.6674460656     -8.6157569095     5.6869987401       -1	 285	 287	 0	 0
  Si     -6.4178877995     -10.0855479605     6.2932890486     -2	 122	 219	 286	 288
  O     -6.9794982193     -10.1428644120     7.8009155146      -1	 289	 287	 0	 0
  Si     -6.7164354366     -10.1477445773     9.3902031400     -2	 218	 291	 288	 290
  O     -7.7737630787     -9.1699680086     10.1069061740      -1	 289	 1975	 0	 0
  O     -6.8965223298     -11.6441553215     9.9551603026      -1	 289	 975	 0	 0
  Si     0.5541784851     -6.4242204188     2.9929850694       -23	 65	 294	 293	 270
  O     -0.2162024718     -7.7863492032     2.6172067359       -1	 292	 319	 0	 0
  O     2.1128883457     -6.7426538800     3.2294648813        -1	 292	 295	 0	 0
  Si     3.6378269229     -6.2320810851     3.2941159189       -23	 296	 299	 294	 64
  O     3.9167635917     -5.5553592556     4.7273018455        -1	 297	 295	 0	 0
  Si     4.8653545576     -4.6181634758     5.6285305900          -2	 153	 298	 296	 280
  O     6.1839279128     -5.4379796192     6.0515468992           -1	 297	 1567	 0	 0
  O     4.6288931848     -7.4865147147     3.0907395841        -1	 300	 295	 0	 0
  Si     5.9474665400     -8.3063308581     3.5137558934       -2	 299	 301	 302	 303
  O     6.7412509184     -8.7560790562     2.1872307640        -1	 300	 1215	 0	 0
  O     5.5175473742     -9.6093190735     4.3544331332        -1	 300	 1428	 0	 0
  O     6.8960575059     -7.3691350783     4.4149846378           -1	 300	 1567	 0	 0
  Si     -1.2220939316     7.1290312456     -3.3934282921      -23	 73	 306	 305	 307
  O     -0.0096925911     6.3271632161     -4.0837431863       -1	 102	 304	 0	 0
  O     -0.7608408505     7.6581837746     -1.9450757120       -1	 1804	 304	 0	 0
  O     -1.6384055851     8.3799618869     -4.3177978814       -1	 840	 304	 0	 0
  Si     -9.9465006593     -7.0779697655     1.9665103755      -2	 169	 268	 309	 112
  O     -11.4714392366     -7.5885425604     1.9018593379      -1	 308	 310	 0	 0
  Si     -13.0300372731     -7.2692741338     1.6648407047     -2	 266	 316	 309	 311
  O     -13.7999227805     -8.6327244972     1.2889731590      -1	 310	 312	 0	 0
  Si     -15.0662996372     -9.6145716433     1.4589373865     -2	 313	 314	 315	 311
  O     -16.2787009776     -8.8127036138     2.1492522806      -1	 936	 312	 0	 0
  O     -15.5272615838     -10.1421456107     0.0112354860     -1	 725	 312	 0	 0
  O     -14.6492688861     -10.8651539331     2.3821401210     -1	 1816	 312	 0	 0
  O     -13.6615281579     -6.6493653921     3.0084892504      -1	 317	 310	 0	 0
  Si     -14.8739294984     -5.8474973627     3.6988041446     -2	 265	 316	 318	 175
  O     -16.1395197711     -6.8290875261     3.8693298394      -1	 317	 936	 0	 0
  Si     -1.4819720550     -8.7686829629     2.7865429299      -2	 320	 293	 222	 328
  O     -1.0655485774     -10.0187786390     3.7103736979      -1	 321	 319	 0	 0
  Si     -1.4955795672     -11.3226018197     4.5515897590     -2	 322	 220	 327	 320
  O     -0.1763989385     -12.1429045768     4.9739780348      -1	 321	 323	 0	 0
  Si     0.8146673234     -13.3973382064     4.7706017000      -2	 322	 324	 325	 326
  O     0.5357306546     -14.0740600359     3.3374157733       -1	 401	 323	 0	 0
  O     0.5559473919     -14.4743065730     5.9376634525       -1	 323	 1463	 0	 0
  O     2.3383238673     -12.8857008151     4.8347804824       -1	 323	 1885	 0	 0
  O     -2.4440587090     -12.2589626342     3.6498221933      -1	 321	 399	 0	 0
  O     -1.9429340015     -9.2962569303     1.3388410294       -1	 397	 319	 0	 0
  O     -8.5807446172     -5.4464419481     -3.6216256656      -1	 110	 103	 0	 0
  O     -11.1339630865     -4.9836564966     -3.2023798260     -1	 331	 103	 0	 0
  Si     -12.7105948422     -4.6589980249     -3.2046566172    -2	 260	 330	 332	 333
  O     -12.9601531083     -3.1892069739     -3.8109469257     -1	 331	 104	 0	 0
  O     -13.4813152426     -5.7509225443     -4.0990239402     -1	 331	 334	 0	 0
  Si     -13.9432430836     -6.2794970906     -5.5484768089       -2	 337	 333	 335	 336
  O     -12.7300551592     -7.0811081375     -6.2382302357        -1	 334	 407	 0	 0
  O     -15.2088333563     -7.2610872541     -5.3779511140        -1	 334	 1152	 0	 0
  O     -14.3588799772     -5.0291444319     -6.4717461095        -1	 366	 334	 0	 0
  Si     -2.4152860753     -10.3267284293     -2.6536298858    -2	 339	 340	 158	 128
  O     -2.1523351167     -10.3324435599     -1.0638034391     -1	 338	 397	 0	 0
  O     -1.3573511597     -11.3049916116     -3.3709609533     -1	 338	 341	 0	 0
  Si     -0.5648931524     -11.7546015476     -4.6956911945    -2	 347	 340	 342	 167
  O     0.7542874763     -12.5749043048     -4.2733029187      -1	 341	 343	 0	 0
  Si     1.7453537382     -13.8293379343     -4.4766792535     -2	 345	 346	 342	 344
  O     1.4664170694     -14.5060597638     -5.9098651801      -1	 1226	 343	 0	 0
  O     1.4872410801     -14.9067929147     -3.3102455344      -1	 1571	 343	 0	 0
  O     3.2690102821     -13.3177005430     -4.4125004711      -1	 1553	 343	 0	 0
  O     -1.5133722942     -12.6909623622     -5.5974587602     -1	 348	 341	 0	 0
  Si     -1.7924207870     -13.3685191569     -7.0301058656    -2	 347	 165	 135	 349
  O     -0.8012427011     -14.6221178212     -7.2340210216     -1	 1226	 348	 0	 0
  O     2.1803963302     5.3879860479     -5.1903730988        -1	 102	 1143	 0	 0
  O     0.4632134677     6.7584366087     -6.6356458334        -1	 102	 1647	 0	 0
  Si     -8.7053655125     -2.9101332994     2.5358782175      -2	 353	 267	 206	 184
  O     -9.9177668529     -2.1082652699     3.2261931117       -1	 354	 352	 0	 0
  Si     -10.5490784273     -1.4876129319     4.5710311582     -2	 353	 178	 355	 199
  O     -12.1085748718     -1.1694364533     4.3339898789      -1	 354	 356	 0	 0
  Si     -13.6327268651     -1.6797522656     4.2699003087     -2	 357	 355	 264	 176
  O     -14.6231858535     -0.4258052497     4.4726486100      -1	 473	 356	 0	 0
  O     -9.6201609192     6.1304734944     -7.6209281784       -1	 105	 1241	 0	 0
  O     -11.4032121545     4.5424457191     -6.5191454969      -1	 105	 1055	 0	 0
  O     -13.6924994387     -0.8578049777     -4.7746323435     -1	 361	 104	 0	 0
  Si     -15.0116800674     -0.0375022205     -5.1970206193    -2	 362	 363	 364	 360
  O     -15.9602710332     -0.9746980003     -6.0982493637        -1	 361	 990	 0	 0
  O     -15.8041380747     0.4121077155     -3.8722903780      -1	 361	 1003	 0	 0
  O     -14.5817609016     1.2654859949     -6.0376978590      -1	 361	 1870	 0	 0
  O     -12.9803698456     -2.7889604367     -6.4111946049     -1	 366	 104	 0	 0
  Si     -13.9295680849     -3.7256696028     -7.3117953159       -2	 337	 365	 367	 368
  O     -15.2481414401     -2.9058534594     -7.7348116251        -1	 990	 366	 0	 0
  O     -13.1357837066     -4.1754178010     -8.6383204453        -1	 389	 366	 0	 0
  Si     -4.1889308865     5.2165684294     5.6474105218       -23	 370	 84	 239	 224
  O     -3.4191572031     6.5791838275     6.0238168888        -1	 369	 571	 0	 0
  Si     -0.3088881211     6.1392542024     3.8198892215       -23	 373	 372	 85	 374
  O     1.2489233314     5.8197287932     4.0563463873         -1	 371	 1645	 0	 0
  O     -0.9403790059     6.7591629441     5.1635377672        -1	 371	 571	 0	 0
  O     -0.4680802205     7.1909229503     2.6122631535        -1	 449	 371	 0	 0
  Si     -0.3589155013     -5.4336084103     -4.2208712655     -22	 68	 156	 71	 376
  O     0.8541605990     -6.2360544224     -4.9100858710       -1	 377	 375	 0	 0
  Si     1.4848648999     -6.8562201467     -6.2542958841      -2	 378	 166	 255	 376
  O     3.0435747605     -7.1746536080     -6.0178160722       -1	 377	 379	 0	 0
  Si     4.5685133377     -6.6640808131     -5.9531650345      -2	 241	 378	 252	 380
  O     5.5582975662     -7.9174498463     -6.1570136245       -1	 379	 1630	 0	 0
  Si     6.0012995259     1.2704815820     -3.1427635797       -23	 74	 382	 383	 384
  O     5.5857744563     2.5216692060     -4.0665717017        -1	 381	 590	 0	 0
  O     6.4625526070     1.7996341111     -1.6944109997        -1	 381	 535	 0	 0
  O     7.2137008663     0.4686135526     -3.8330784739        -1	 381	 958	 0	 0
  Si     5.8089293871     -2.4965926986     -5.3826303378      -23	 242	 75	 386	 253
  O     7.0754180678     -1.5139105872     -5.5531333866       -1	 385	 958	 0	 0
  O     -8.7575897624     -6.4316795478     -8.4477431183      -1	 109	 405	 0	 0
  O     -10.5832843348     -4.6385516041     -9.0563994302     -1	 109	 389	 0	 0
  Si     -12.0784560645     -5.1531943696     -9.3550234793       -2	 388	 390	 391	 368
  O     -12.3415188472     -5.1483142043     -10.9443111047       -1	 1193	 389	 0	 0
  O     -12.2579356842     -6.6500917275     -8.7906943502        -1	 389	 407	 0	 0
  O     -8.4450421594     -4.9058936243     -10.5617491049     -1	 393	 109	 0	 0
  Si     -8.7079931180     -4.9001784937     -12.1515755516    -2	 394	 395	 396	 392
  O     -7.6500582024     -5.8784416760     -12.8689066191     -1	 393	 1384	 0	 0
  O     -8.5285134982     -3.4032811358     -12.7159046808     -1	 393	 741	 0	 0
  O     -10.2032766717     -5.4156562245     -12.4496607795       -1	 393	 1193	 0	 0
  Si     -2.7144409859     -10.3884384323     0.4439122390     -2	 339	 398	 143	 328
  O     -2.4648827197     -11.8582294833     1.0502025475      -1	 397	 399	 0	 0
  Si     -2.7231072018     -12.9365194290     2.2171750879     -2	 400	 150	 327	 398
  O     -1.7319291159     -14.1901180933     2.0132599318      -1	 401	 399	 0	 0
  Si     -0.4133557607     -15.0099342367     2.4362762411     -2	 402	 403	 324	 400
  O     -0.8427794770     -16.3142440311     3.2768642687      -1	 401	 543	 0	 0
  O     0.3803167936     -15.4605174001     1.1102899329       -1	 401	 464	 0	 0
  O     -8.7368775757     -6.8332476639     -5.8475846513      -1	 405	 110	 0	 0
  Si     -9.0158142445     -7.5099694934     -7.2807705779     -2	 387	 188	 404	 406
  O     -10.5407528218     -8.0205422883     -7.3454216156     -1	 405	 407	 0	 0
  Si     -12.0993508583     -7.7012738618     -7.5824402487       -2	 335	 406	 391	 408
  O     -12.8692363657     -9.0647242252     -7.9583077945        -1	 1483	 407	 0	 0
  O     9.4806510808     -12.0940088424     -16.4585155470     -1	 1582	 1847	 0	 0
  O     -6.2729153630     -23.4498471376     -7.0478963371     -1	 1585	 1376	 0	 0
  O     -27.2450691562     -7.4949970899     1.6814451744         -1	 1093	 1423	 0	 0
  Si     18.1522336465     -5.8177055190     -4.6249314577        -2	 1783	 2122	 1636	 1255
  O     -16.2476178729     -14.6034290630     9.9318350533     -1	 1861	 1606	 0	 0
  O     11.3637979922     2.1035367246     -1.2159124365          -1	 702	 1456	 0	 0
  O     -6.0170016391     15.0602691410     2.0947038603       -1	 1421	 997	 0	 0
  O     -13.9791715184     -14.4871140230     11.2565523621    -1	 1706	 1606	 0	 0
  O     6.2830144515     0.9006132805     5.4142024796            -1	 963	 1796	 0	 0
  O     -0.7070444104     7.9473841763     -13.5639785462      -1	 635	 1924	 0	 0
  O     -19.8415302698     -12.4550125366     -5.1771316259       -1	 1953	 1719	 0	 0
  O     -0.4154211385     9.2328535526     -6.4838333959       -1	 1647	 840	 0	 0
  Si     -13.5731659990     7.9031550173     -2.3778416773     -2	 979	 1637	 478	 1174
  Si     -8.7735925945     -15.0411215789     10.9568830523    -2	 578	 1115	 743	 680
  O     -18.3897935448     -10.3261316594     -14.1357967437      -1	 1817	 1507	 0	 0
  O     -10.4581134099     -14.6702699594     14.1996620610    -1	 829	 1408	 0	 0
  Si     -19.9341001237     1.1987166734     -3.4547825083        -2	 1814	 1748	 1182	 775
  O     16.5847635562     -2.9462876297     -6.4005603099         -1	 1881	 731	 0	 0
  Si     8.1652414556     2.4584943061     -10.0468523750      -2	 1971	 1836	 1156	 1792
  O     -14.4165415641     -9.6764460871     -16.3447481589       -1	 1084	 1846	 0	 0
  O     9.9586604986     -6.6884399115     14.0523723544          -1	 1891	 1776	 0	 0
  O     -11.5820860076     -16.3367051903     8.6113475368     -1	 1481	 1648	 0	 0
  Si     7.7959509549     -11.7239008192     -13.2169260392    -2	 1129	 1498	 955	 948
  O     -16.9010796731     -14.7254672459     -8.4229904800       -1	 1354	 504	 0	 0
  O     2.9653649902     -4.7217914115     11.3744243320          -1	 1750	 942	 0	 0
  O     -15.5124473164     1.6974857228     3.2095830944       -1	 473	 1250	 0	 0
  O     6.9168815166     -7.7698682291     7.0146042835           -1	 466	 1567	 0	 0
  O     8.6172933400     0.4678872172     -15.6322620745       -1	 444	 1350	 0	 0
  Si     17.5292565341     -2.7767497566     -0.2479166566        -2	 1405	 1324	 1109	 1607
  O     12.2790957175     -8.4167770842     -11.1370956037     -1	 1041	 1770	 0	 0
  O     -9.0988194745     8.6929326611     -7.3316616631       -1	 1241	 762	 0	 0
  O     -19.0228740259     -1.6553931671     -15.7356370802       -1	 826	 1200	 0	 0
  O     -7.3722672552     10.2020967920     -6.0544854574      -1	 1841	 762	 0	 0
  O     -2.2204503747     -22.4625968741     7.3566625745      -1	 1609	 786	 0	 0
  O     4.6543014575     2.9534119513     5.1801477844            -1	 1796	 1949	 0	 0
  Si     8.7764854395     -0.5837815308     -14.4246360065     -2	 436	 550	 903	 1508
  O     5.0710909496     7.5300866602     -10.7138581023       -1	 1234	 1614	 0	 0
  Si     -12.7782146508     -16.7904729181     5.2157201842    -2	 1425	 1732	 909	 1319
  Si     6.7410096593     -2.9288220576     -14.6299778574     -2	 903	 1896	 1759	 1736
  Si     -19.0034137089     0.7667169454     -12.7020634618       -2	 1359	 1468	 1263	 890
  Si     -0.2879933273     8.6873336945     2.0473059909       -2	 537	 1968	 374	 928
  O     -1.4452570362     -0.5608090479     -14.0179247738     -1	 615	 1880	 0	 0
  Si     -16.8730528970     0.8264972354     13.2975412877     -2	 1243	 1612	 1038	 1199
  O     -19.3561582168     -10.8232604193     14.2147024286    -1	 1726	 455	 0	 0
  O     19.8096804469     -2.9007996943     -3.1311940264         -1	 1963	 1444	 0	 0
  Si     -14.4446680971     -14.6466371963     -17.6050589285     -2	 1595	 771	 941	 910
  Si     -20.9329017965     -10.4994369129     14.2129644587   -2	 530	 2011	 452	 671
  O     8.8106913470     2.5671571414     -0.7972054182           -1	 535	 1456	 0	 0
  O     10.4331115774     2.5355364525     8.0313685170           -1	 818	 839	 0	 0
  O     7.0884194709     -16.3101629958     -5.2857037219      -1	 1282	 607	 0	 0
  Si     -4.5083733174     2.6062923204     10.5169078438      -2	 225	 1037	 1664	 1233
  Si     -19.3700766040     -11.4256329856     -1.1846833569      -2	 1833	 1267	 1529	 720
  Si     -0.9206879649     -23.3839127815     -9.6302728665    -2	 2090	 1876	 1989	 1549
  O     6.6212774248     -18.5810082339     -17.1937612131     -1	 770	 1342	 0	 0
  O     -27.4953838426     -3.2028493891     1.5084808052         -1	 1509	 592	 0	 0
  Si     1.4376444357     -16.4382939688     0.3935868989      -2	 1602	 1202	 403	 1343
  O     -1.8071989349     14.9653712771     -15.5020017856     -1	 523	 1512	 0	 0
  Si     7.1664397828     -9.2396592801     7.6208945920          -2	 435	 509	 1150	 632
  Si     -19.0623673015     -8.8166769511     -6.0549495093       -2	 746	 869	 1479	 1872
  O     -19.4000835873     -7.4410401039     12.5037911801     -1	 604	 916	 0	 0
  O     -12.3253761823     -18.7808230244     -0.3691280480    -1	 1578	 1534	 0	 0
  O     4.7949755789     -16.7873936765     -17.8017894915     -1	 770	 875	 0	 0
  O     9.6974523914     5.5173777288     -11.7553976202       -1	 1562	 653	 0	 0
  O     -11.3213593266     -2.1075389345     15.0253767122     -1	 1265	 1697	 0	 0
  Si     -15.9423664822     0.3944975074     4.0502603342      -2	 434	 1979	 357	 726
  Si     13.1005499266     3.7758459174     -13.5529704603     -2	 603	 1196	 2038	 879
  O     -9.1930499676     6.7097978569     14.7974092158       -1	 1635	 560	 0	 0
  O     -10.9601923041     9.5569321170     11.1629002438      -1	 1643	 988	 0	 0
  O     4.8373277815     -20.1701279571     -16.0920011777     -1	 1342	 1840	 0	 0
  O     -14.1346645947     7.8466735311     -0.8707540326      -1	 421	 695	 0	 0
  O     -7.2561161844     -23.3081124078     13.8187597058     -1	 1773	 542	 0	 0
  Si     14.1587935877     -3.0297656326     2.5486354157         -2	 1993	 1379	 524	 822
  O     12.7552596497     -3.6269158245     7.8035346662          -1	 1217	 1030	 0	 0
  O     -10.2395817643     8.0893237422     -0.4881254667      -1	 689	 1318	 0	 0
  O     -16.9116696347     -0.1411301563     0.5488731228      -1	 707	 981	 0	 0
  O     14.2083902321     -1.4982645785     -1.1551970176         -1	 683	 1272	 0	 0
  O     -25.6488652595     -5.3967104837     4.7167567628         -1	 1034	 996	 0	 0
  O     -4.9093713018     -22.5403597464     14.7160318534     -1	 582	 542	 0	 0
  O     -3.4583534629     10.9352525874     3.6664175565       -1	 797	 742	 0	 0
  O     -20.6515870199     0.3974055037     -15.9696917754        -1	 1211	 1200	 0	 0
  O     12.2269764225     -10.4591029313     -2.0433554099        -1	 1078	 591	 0	 0
  O     16.7772631552     -0.8481096534     8.4344737003          -1	 1172	 1045	 0	 0
  Si     1.4486243424     -15.8744203063     -16.0589136993    -2	 1089	 1412	 599	 716
  O     -1.4816307007     9.1250485531     9.7047604977           -1	 1738	 1590	 0	 0
  Si     2.9670220729     -12.7727125311     14.3196415364        -2	 1936	 548	 871	 696
  O     4.1918490698     10.0049902178     -10.5614176314      -1	 1614	 1190	 0	 0
  O     -22.5668681136     0.9713695926     14.1443117870      -1	 1122	 1516	 0	 0
  O     -1.5802055188     -24.8221802727     2.8234795085      -1	 1091	 1326	 0	 0
  Si     -24.1327987360     -2.3339882260     3.2427975813        -2	 1141	 516	 1269	 1232
  O     -0.3747390229     -14.0423068451     15.1849444060     -1	 793	 554	 0	 0
  O     7.8118896742     -9.1309964449     16.8705415489          -1	 1565	 576	 0	 0
  O     -18.6948326941     -1.7299928968     1.6511946255      -1	 1485	 981	 0	 0
  Si     13.9501208447     -11.3407125952     -12.6153666046   -2	 876	 1693	 974	 2048
  O     2.8338581304     5.5100242308     13.1644524345           -1	 1171	 1104	 0	 0
  O     -20.7722166846     -12.0230128086     4.0701493276        -1	 715	 1334	 0	 0
  Si     -18.4596777096     -14.4061988194     -8.6600091132      -2	 1820	 2137	 1000	 432
  O     -6.3023996338     11.7537131517     -13.5816888521     -1	 693	 541	 0	 0
  Si     -22.2896930947     -3.7560219797     1.2082726741        -2	 1232	 1036	 1111	 800
  O     3.0685512320     8.3379770042     -16.1486318669       -1	 581	 630	 0	 0
  Si     7.5905805773     -18.0453805702     -13.6923740017    -2	 1098	 618	 2051	 1022
  O     8.7430715384     -9.5643177518     7.6231713832           -1	 466	 1886	 0	 0
  O     -21.8156080302     -0.3588160006     12.0051054915     -1	 1516	 1183	 0	 0
  Si     2.6760401530     -14.2613376623     -13.7239602070    -2	 1132	 572	 1918	 716
  Si     1.4167496419     -18.9863734609     2.1661701295      -2	 1602	 1237	 1942	 1440
  O     -6.7350658742     -20.7472318027     14.1073755415     -1	 1669	 542	 0	 0
  O     2.7352670411     -0.8298902479     13.8017076420          -1	 1047	 944	 0	 0
  O     -1.6961789961     3.7318252665     -14.1902611095      -1	 1633	 1457	 0	 0
  O     -25.6927906300     -2.0144901683     3.0058455142         -1	 497	 1509	 0	 0
  O     6.5163490471     2.0888345128     -13.3133138339       -1	 1865	 1959	 0	 0
  O     -12.9960106760     -4.1190790580     15.2910817923     -1	 1265	 1831	 0	 0
  O     -6.7081281812     14.6594034882     -15.9817790617     -1	 987	 1131	 0	 0
  O     -21.1358435753     3.5018185859     2.5854882023       -1	 1762	 740	 0	 0
  Si     2.4364461085     -4.7401403825     -17.2741600681     -2	 1658	 747	 2181	 1639
  Si     1.2204220297     9.8049270091     17.7442155369          -2	 2067	 610	 1179	 1044
  Si     -2.5788852298     13.8724461787     -16.3981200767    -2	 2033	 896	 838	 465
  O     13.1014659456     -2.0519890639     3.2653384497          -1	 995	 480	 0	 0
  Si     4.8763344642     -4.0542898133     -10.8239700082     -2	 249	 1914	 1461	 254
  O     -10.0835934639     8.8341534257     13.5338714450      -1	 988	 560	 0	 0
  O     -6.5527143203     16.0458608525     -13.7546532213     -1	 1058	 1131	 0	 0
  O     5.5318661922     2.2316338390     7.5528699538            -1	 1796	 1144	 0	 0
  O     -3.4893247436     16.7268130019     -4.1167040374      -1	 1705	 652	 0	 0
  O     -21.7035103729     -11.5905264670     13.3180583145    -1	 1449	 455	 0	 0
  O     -7.9173246408     -0.9894836034     -13.5477524152     -1	 741	 703	 0	 0
  O     12.0708434640     -11.8459086471     -4.2693143955     -1	 601	 591	 0	 0
  O     -0.1446410738     -17.9342080087     12.7576610960     -1	 1715	 1563	 0	 0
  Si     -0.9284557728     -25.9309018302     -7.8569873716    -2	 2087	 1827	 1549	 1207
  Si     7.2339477673     2.8909806478     -0.7989433881          -2	 1599	 763	 383	 456
  O     -8.9149207228     13.9487331661     7.0515405291       -1	 1270	 952	 0	 0
  O     -0.5509442859     8.6930488251     0.4574795442        -1	 449	 1804	 0	 0
  Si     -7.5330681625     11.9975468833     3.5686630418      -2	 723	 1587	 1763	 1774
  O     -0.7620464413     -18.9781865812     -4.8766216893     -1	 1487	 904	 0	 0
  O     -17.0841059970     8.3980726625     12.8491584821      -1	 1254	 1672	 0	 0
  Si     -5.6709087490     11.1338044100     -14.9253373978    -2	 505	 1628	 556	 705
  Si     -6.4855076081     -22.2170228537     14.7136658500    -2	 513	 1999	 486	 479
  Si     -0.4263559994     -17.5643397072     4.2006950367     -2	 1050	 402	 847	 1440
  O     -27.4745598319     -3.6035825400     4.1081004509         -1	 1034	 1509	 0	 0
  O     5.4604930608     -14.2571073424     -5.5191969497      -1	 1553	 607	 0	 0
  Si     -1.8512625556     -22.9510780882     -0.3835307343    -2	 626	 1163	 1644	 1205
  Si     4.5089524716     -16.2469880959     0.6945769514      -2	 1764	 679	 1343	 1640
  O     1.4076374525     -12.4537010871     14.0820614359         -1	 554	 493	 0	 0
  O     12.0501312773     -11.4443405310     -6.8694728625     -1	 601	 850	 0	 0
  O     8.1451738651     0.0368708073     -13.0797979600       -1	 1865	 444	 0	 0
  O     -13.1211141145     5.9125479283     -7.9632513768      -1	 1082	 1055	 0	 0
  Si     6.8672848722     -9.3013692832     10.7184367169         -2	 1150	 677	 765	 1743
  O     -8.1342881926     -22.5858476817     11.4466655699     -1	 1268	 1773	 0	 0
  Si     -0.1165145408     -12.9640168994     14.0179718656    -2	 649	 498	 548	 1311
  O     -17.2093873924     -8.3807038859     11.3965332341     -1	 916	 1294	 0	 0
  O     -5.8294935749     12.1849865443     -16.1335914992     -1	 987	 541	 0	 0
  Si     -12.3430107588     11.5071178209     14.6440267629    -2	 1467	 1837	 2022	 1712
  O     -5.0437837112     11.2462787288     -5.4415992785      -1	 1841	 1301	 0	 0
  O     10.2238294314     -9.6507259736     -7.4775011409      -1	 850	 650	 0	 0
  Si     -10.5135126296     7.5311652104     14.3745486848     -2	 475	 1860	 526	 923
  Si     -15.9313865755     0.9583711699     -12.4022402640       -2	 567	 1289	 1263	 1904
  O     14.9100003827     -4.9586627184     -6.1343164086         -1	 1881	 1160	 0	 0
  O     -3.2390100572     12.4346653012     -3.9437396682      -1	 1755	 1301	 0	 0
  Si     -15.0689272428     -11.6046168375     -13.2285163827     -2	 713	 806	 1926	 1710
  Si     5.8771564691     9.6343955809     -13.8036351727      -2	 977	 2035	 983	 1480
  Si     -9.6366592007     -2.4776469577     11.7837872044     -2	 1409	 1623	 951	 183
  O     -15.6684356168     0.9526560393     -10.8124138173        -1	 561	 1399	 0	 0
  Si     -4.5473533045     -8.4027879987     -13.9746249194    -2	 1108	 1661	 1118	 1951
  Si     -2.2073999162     -2.0160384492     12.5098106671     -2	 1593	 276	 1925	 1320
  O     5.2140452382     -0.6499111313     12.9414285204          -1	 1389	 944	 0	 0
  Si     -2.1527803464     7.5610309735     5.8538526614       -2	 1313	 370	 373	 1768
  O     4.1995848728     -13.7505352363     -13.6592426033     -1	 1569	 511	 0	 0
  O     -14.2782587655     -7.6939219473     -14.6246932462       -1	 1084	 1568	 0	 0
  O     17.6566168590     -3.3221782457     8.2814944081          -1	 1172	 684	 0	 0
  Si     -14.4959727818     10.8829787593     5.0956149599     -2	 1445	 1806	 2023	 1176
  Si     9.3070614038     -8.6163536793     17.1691655980         -2	 1035	 499	 1316	 2077
  O     -7.0533596266     -13.5518662767     -14.3746339212       -1	 1618	 620	 0	 0
  O     -8.3571691169     -16.2912172550     11.8807138204     -1	 1116	 422	 0	 0
  O     -3.5003856882     9.2444479566     14.1773920590          -1	 853	 1375	 0	 0
  O     -17.6822934513     -8.8119772784     13.9484358812     -1	 916	 1726	 0	 0
  Si     1.5733795023     7.8233342386     -16.4472559160      -2	 507	 2107	 1076	 1791
  Si     -3.4140877482     -22.0248820155     15.0141170812    -2	 1490	 2004	 486	 1079
[...]
 1904      O     -14.8734516599     -0.0198920125     -13.1195713315
 1905      Si     -5.8539761038     -22.7107325847     8.5639270214
 1906      Si     -16.9303000724     -10.7406173817     5.2660455243
 1907      Si     -11.8388620200     -14.6743916494     -5.8048236182
 1908      O     -20.2194041335     1.7394706055     15.0404170799
 1909      Si     -7.2133950076     -17.9573628459     -19.1282185324
 1910      Si     8.4438154871     3.9463773455     17.9948802493
 1911      O     -16.0721910970     5.3008088055     -4.5516976415
 1912      O     3.2097181200     8.3940861161     7.7807038046
 1913      Si     -15.7369961046     6.7159772585     4.5257082967
 1914      O     5.9341575558     -5.0333879610     -11.5407622544
 1915      O     -7.8262960742     -6.8641658894     -17.6956521052
 1916      Si     -2.7912224599     -25.0666727432     10.6376411015
 1917      O     -22.3413100712     -7.2780548418     -9.7759766952
 1918      O     2.4179274949     -15.3387926426     -12.5575264879
 1919      O     11.1976546327     -13.4652029995     -15.0144323132
 1920      O     -1.1704769551     10.6510641077     7.5908210772
 1921      Si     -1.2403611198     6.5709969477     13.0666087076
 1922      Si     -5.5461549773     -20.1009415850     3.6931220477
 1923      O     -26.7729496813     -7.0639806799     -0.8710189401
 1924      Si     -0.2770134206     9.2512073570     -14.4051946073
 1925      O     -1.2588089504     -1.0788426694     13.4110394115
 1926      O     -14.8888403495     -10.1082060934     -13.7934735453
 1927      O     7.1469794657     -11.6617693927     4.5873209736
 1928      O     11.1551231197     -10.0832123152     -16.7254101279
 1929      O     -13.7607265207     -12.9887932571     3.6463724914
 1930      Si     10.2949949940     2.5187612098     15.9533804079
 1931      O     -11.4775538330     -17.7106968776     -11.7711926107
 1932      O     -15.2797874808     2.8862849377     -15.5190335077
 1933      O     4.5290200621     -13.8253645970     3.7275225364
 1934      O     2.0446612636     -18.8736421595     11.6504697161
 1935      O     -8.6894745044     5.6984737665     -16.8682091319
 1936      O     3.7375148538     -11.4097487814     14.6948810487
 1937      O     -2.5323907043     -23.9888694113     9.4700405276
 1938      O     -15.6854909521     10.2371751553     15.5104964872
 1939      O     7.0071909857     -13.6448988667     2.8678714482
 1940      O     -9.3918712390     9.1586149238     -11.8896512082
 1941      Si     -9.4442890619     1.2894273229     14.0236539625
 1942      O     2.9753476784     -19.3056418875     2.4031887627
 1943      Si     -13.7095083390     -16.3579865764     14.4636291711
 1944      O     -5.6368821519     14.2839994859     -1.2990963103
 1945      Si     11.8686882692     2.1556038343     -15.8962291846
 1946      O     -8.1681330597     8.2609329332     -16.5789426166
 1947      Si     13.0331094285     -8.3548853795     -5.1314041581
 1948      O     0.3797421289     8.2610490972     -8.7898014092
 1949      Si     5.0836133498     4.2568867804     4.3400985781
 1950      O     -2.4284178786     -10.9288440129     -18.0524542039
 1951      O     -3.0238085847     -7.8919855727     -13.9099073157
 1952      Si     -21.1632223515     1.5693547498     8.8888737152
 1953      Si     -19.0709216935     -11.3639229825     -4.2822254817
 1954      Si     8.7082583574     -12.7147698103     -6.0036311717
 1955      O     -13.6651021702     -11.0058880840     -18.4827649536
 1956      Si     0.5725574974     -5.8653511556     -13.4675907516
 1957      O     0.6118995203     12.2396698656     6.4879381070
 1958      Si     -18.3712749312     0.2725206007     -18.8524303239
 1959      Si     6.9463800369     3.3926576934     -14.1545298949
 1960      O     4.0046694681     -16.2995418193     15.3742656660
 1961      O     9.5538696977     5.0104400102     8.1838089879
 1962      O     -6.8437631527     14.1187637955     -9.0399273003
 1963      Si     19.3932569693     -1.6507040182     -4.0550247944
 1964      Si     -7.7201713519     6.2341014301     -13.3668219204
 1965      O     0.7957124282     -10.8836130602     -14.7836493878
 1966      O     -3.2491322822     -1.7481036724     -15.5157617380
 1967      Si     -3.9912094168     -23.5749616717     -9.9307014517
 1968      O     1.2072902264     9.2028114254     2.3453912188
 1969      O     9.3613700987     2.9122620339     -6.6512250223
 1970      Si     -10.9160552372     -17.6542153914     -13.2782802554
 1971      O     7.3946328792     1.3674047520     -10.9417585192
 1972      Si     -18.7248396773     2.2545999848     15.3396691625
 1973      O     -12.7618130239     -1.2898047056     -14.0219132969
 1974      O     -12.8300401059     -13.4207929851     -5.6009084621
 1975      Si     -8.5674356330     -8.7193848452     11.4328924822
 1976      O     9.2931430166     -9.2187262456     1.7697798125
 1977      O     -0.9713502867     12.5507233586     -2.6195838267
 1978      Si     -16.3073229600     -13.7815731441     0.8890307232
 1979      O     -16.8909574480     -0.5426982724     3.1490315898
 1980      O     -7.2901403620     7.5379246108     -14.2080379815
 1981      O     -18.1596955957     -14.2180328230     -16.5630800536
 1982      O     3.4865946109     -2.1601672101     11.6642296686
 1983      O     9.3256918415     1.9831335461     12.4519931965
 1984      Si     -3.2076098180     16.3569447004     4.4402620219
 1985      O     11.3485211267     -7.9839423910     -1.8903534715
 1986      O     -24.7181788447     -5.8287102116     -4.5305241907
 1987      O     6.9046065630     6.8131199300     15.9858837729
 1988      O     -10.3744976382     7.5490324010     6.4525594399
 1989      O     -2.4965331366     -23.0589973272     -9.6319881903
 1990      O     -3.2922710687     1.6343736256     -17.2261115192
 1991      Si     -13.0793898934     -18.8427147292     -6.3748194936
 1992      Si     4.6361331463     5.4673940802     -14.3735418359
 1993      O     13.8958426290     -3.0240505020     0.9588089690
 1994      O     2.3822492377     -16.2679211304     6.5456917309
 1995      O     11.2077768578     0.7175659741     -3.4424102434
 1996      Si     -7.7071711131     8.7885069006     -15.1312407161
 1997      Si     -11.4332191378     8.5270386008     7.1693290400
 1998      O     -5.1019827249     -24.6393726880     -0.1184633356
 1999      H     -6.9365498859     -22.2620998908     15.9254310601
 2000      H     -8.7345648332     -24.6250601189     12.5067630139
 2001      H     -6.4929837079     -26.3539662497     10.0348599717
 2002      H     -1.9957367838     -26.0740158288     10.4740579513
 2003      H     -0.5024810975     -24.1122151737     13.3117657665
 2004      H     -3.2032862423     -22.0297193317     16.2901128984
 2005      H     -13.7171637494     -20.4956735687     9.7836337920
 2006      H     -15.9579582906     -18.7665104553     12.2560983016
 2007      H     -10.4266796998     -16.1711696681     16.0394481860
 2008      H     -14.1599433433     -16.4035502272     15.6747663477
 2009      H     -20.9405572069     -14.6371239052     9.5329690796
 2010      H     -23.1813517481     -12.9079607918     12.0054335892
 2011      H     -21.3841233848     -10.5452575463     15.4235401680
 2012      H     -17.6500731572     -10.3126200046     15.7887834737
 2013      H     -21.7192258072     -6.9453344096     12.6031955478
 2014      H     -15.0237965335     -3.8403325887     16.5011090324
 2015      H     -29.4740587908     -7.4814108562     2.5074879233
 2016      H     -27.6768304275     -5.1187076107     5.9255945021
 2017      H     -24.0445301784     -0.3453211359     12.8328765626
 2018      H     -22.2473018150     2.0173821096     16.2509831413
 2019      H     -22.5830789974     5.6178832289     13.4295382326
 2020      H     -15.8863676903     8.7218204535     17.3279239724
 2021      H     -16.2221448726     12.3223215728     14.5064790636
 2022      H     -11.7241113645     12.6025289763     14.9462385105
 2023      H     -15.2914584578     11.8903218449     5.2591981101
 2024      H     -8.5953544242     14.9947456831     9.1582118834
 2025      H     -8.9306361571     18.5939252235     6.3366777624
 2026      H     -4.4326026490     18.8741326269     6.7764372093
 2027      H     -7.9999497423     18.1619254955     -2.9106031910
 2028      H     -3.5019162342     18.4421328990     -2.4708437442
 2029      H     -7.0692633275     17.7299257676     -12.1578841445
 2030      H     -2.5712298194     18.0101331710     -11.7181246976
 2031      H     -1.2611216930     16.7129697856     -4.9433082537
 2032      H     -0.3296486942     16.2812270403     -14.1900277398
 2033      H     -2.1276636415     13.9182668122     -17.6086957860
 2034      H     4.6521636381     12.1515835075     -11.4674599853
 2035      H     6.8937447633     10.4226773767     -13.9393630275
 2036      H     5.0957298160     8.0597171486     -17.3580310736
 2037      H     11.8763436795     6.2932908266     -11.2162338055
 2038      H     14.1177454943     4.5636410994     -13.6893263485
 2039      H     12.3197305470     2.2006808714     -17.1079943947
 2040      H     12.6550122798     -1.3984986690     -14.2864602737
 2041      H     5.9596948302     -4.5026655246     -18.1849125796
 2042      H     20.4099570875     -0.8615872572     -4.1912914705
 2043      H     18.6119421402     -3.2245474852     -7.6099595166
 2044      H     12.7389148363     -6.2688622156     -12.0430487454
 2045      H     14.9803166510     -7.9985119427     -14.5161412884
 2046      H     13.1830882877     -10.3612151882     -17.9342478672
 2047      H     13.5180788861     -13.9619732902     -15.1133644258
 2048      H     15.0107272989     -11.9996860213     -12.2750285771
 2049      H     6.8227614364     -17.0661401458     -19.0118167317
 2050      H     7.1580431693     -20.6653196862     -16.1902826108
 2051      H     8.6504004476     -18.7046109790     -13.3525974416
 2052      H     2.6606169347     -20.9460137033     -16.6306700911
 2053      H     14.1474813822     0.5630450035     -11.4493139258
 2054      H     -1.2644852112     1.3556271563     -18.4361387593
 2055      H     -8.4878786687     7.2141768198     -18.6868034717
 2056      H     5.9623835886     10.8552550873     -4.6931823626
 2057      H     3.7214772233     12.5835832354     -2.2201790318
 2058      H     -2.1916962837     17.1458044788     4.3034338785
 2059      H     -4.8620907806     15.2271262422     9.5228937217
 2060      H     -2.6379291144     13.1673752879     15.8346234283
 2061      H     1.8594971202     13.4480693051     16.2750109086
 2062      H     -12.1531040467     8.9542010126     17.6926058107
 2063      H     -18.5132515875     2.2500196513     16.6162264470
 2064      H     -8.6629742328     2.8632707899     17.5785886847
 2065      H     -4.9289240053     3.0959083316     17.9438319904
 2066      H     -2.3026473815     9.5681957475     18.6561575492
 2067      H     1.4306162621     9.8005763066     19.0208393875
 2068      H     4.1010107590     11.7192545432     13.8013795443
 2069      H     2.7907908085     13.0155829634     7.0271019217
 2070      H     -14.3600972831     11.4577441343     -3.9869825547
 2071      H     5.0316971738     11.2872548153     4.5540985908
 2072      H     9.0836096752     7.5898679931     16.5245087663
 2073      H     4.9207460760     3.7096460840     18.9068222616
 2074      H     8.6547963035     3.9422836257     19.2720655673
 2075      H     -1.4395807753     -2.9952788736     17.8292533971
 2076      H     2.2944694522     -2.7626413319     18.1944967028
 2077      H     9.5178629097     -8.6211909955     18.4451614152
 2078      H     5.7838126822     -8.8538285372     18.0799181095
 2079      H     3.1570406090     -15.3247943741     17.3676817629
 2080      H     -0.5762230346     -15.5571749332     17.0029999246
 2081      H     -4.0663528485     -9.4662447105     17.1170170505
 2082      H     -7.8004030760     -9.6988822523     16.7517737448
 2083      H     -7.8038784184     -25.0570598468     3.2594820605
 2084      H     -5.5616900197     -26.7864525913     0.7869509848
 2085      H     -1.0642637851     -26.5057585742     1.2273384652
 2086      H     -4.6310036049     -27.2184523193     -8.4603299686
 2087      H     -0.1329700968     -26.9382449158     -8.0205705218
 2088      H     -6.8724054196     -25.4888025922     -5.9872374256
 2089      H     1.3588917321     -24.9762146296     -5.1827961404
 2090      H     -0.4687472791     -23.3377437965     -10.8420154305
 2091      H     -4.2027975066     -23.5703813382     -11.2072587362
 2092      H     -13.1651124623     -20.0622526566     -15.4851830915
 2093      H     -6.4256771395     -21.5116949802     -17.5185161876
 2094      H     -10.9237106476     -21.7919023837     -17.9582756345
 2095      H     -6.7615661458     -17.9120288261     -20.3394222751
 2096      H     -10.4956163734     -18.1446663679     -20.7046655808
 2097      H     -13.9849596033     -12.0534791626     -20.5900869875
 2098      H     -17.7190098309     -12.2861167043     -20.9553302932
 2099      H     -0.4012392945     -11.2071038685     -19.2618534106
 2100      H     -4.1346822486     -11.4402280240     -19.6277247498
 2101      H     -7.6246327520     -5.3485542050     -19.5125181230
 2102      H     -11.3580757061     -5.5816783604     -19.8783894622
 2103      H     -14.8488127935     0.5097384759     -19.7637443028
 2104      H     -18.5820764371     0.2773579169     -20.1284261411
 2105      H     -4.9977488548     1.1232465972     -18.8008205977
 2106      H     -12.2211423123     6.9817962607     -19.0514853101
 2107      H     1.3630734459     7.8268499758     -17.7233409454
 2108      H     -5.8611065956     13.6851426567     -17.9745671251
 2109      H     10.9448706808     6.7250335719     -1.9695143194
 2110      H     10.0141842660     7.1570332998     7.2777666341
 2111      H     11.3244042165     5.8607048797     14.0520442567
 2112      H     18.1682641383     0.8664839084     -1.7188496070
 2113      H     17.2375777235     1.2984836363     7.5284313464
 2114      H     19.4792706727     -0.4295875292     5.0559894830
 2115      H     19.5088947366     -4.4310185905     7.2965407269
 2116      H     18.0170329077     -6.3930488767     4.4587663456
 2117      H     12.2178814705     -10.7039438201     15.4662528159
 2118      H     10.7255241922     -12.6646525273     12.6285676468
 2119      H     11.6562106070     -13.0966522553     3.3812866933
 2120      H     13.1485678853     -11.1359435481     6.2189718625
 2121      H     12.5873924713     -13.5299735622     -5.8660834724
 2122      H     18.9477193225     -6.8250486046     -4.7885146079
 2123      H     12.1876501332     -6.7020261451     13.2263296054
 2124      H     20.4401884249     -4.8635049321     -1.9513682600
 2125      H     5.8570591698     -17.4075471987     14.3887731636
 2126      H     4.3651973409     -19.3695774849     11.5509987823
 2127      H     5.2958837557     -19.8015772129     2.3037178288
 2128      H     6.7876337606     -17.8403818920     5.1420310314
 2129      H     6.2273567545     -20.2333199582     -6.9430016573
 2130      H     7.7191067593     -18.2721246373     -4.1046884547
 2131      H     14.0800408841     -11.5676862934     -3.0277476236
 2132      H     0.4282053173     -24.5442149017     4.0644848131
 2133      H     -12.7856907506     -20.9274163141     0.5369143059
 2134      H     -15.0272718758     -19.1985101833     3.0088173481
 2135      H     -11.8543970624     -21.3599026557     -8.7109946810
 2136      H     -14.0965854610     -19.6305099112     -6.2384636054
 2137      H     -19.0777905199     -15.5013529922     -8.9616593934
 2138      H     -21.3199789185     -13.7719602477     -6.4891283177
 2139      H     -18.1471041051     -15.9333527201     -18.2089403469
 2140      H     -20.3894043278     -14.2047949409     -15.7358704499
 2141      H     -26.3025778348     -9.6425736975     -9.2122575397
 2142      H     -28.5433723760     -7.9134105841     -6.7397930301
 2143      H     -28.5731082639     -3.9128144882     -8.9798054528
 2144      H     -27.0812464351     -1.9507842019     -6.1420310715
 2145      H     -19.0110691193     -3.3709700469     -17.3820588409
 2146      H     -21.2518636605     -1.6418069335     -14.9095943313
 2147      H     -21.2820949979     2.3601107415     -17.1495175418
 2148      H     -19.7896258955     4.3216544140     -14.3123711939
 2149      H     -14.9219474571     9.0642921028     -16.0731381782
 2150      H     -13.4288035948     11.0252577926     -13.2348915416
 2151      H     -8.5611251564     15.7678954814     -14.9956585259
 2152      H     12.2558772152     5.4289621343     4.8053247706
 2153      H     9.9460690080     -4.9731200144     15.6982326476
 2154      H     9.8629530354     -0.1024994852     13.4553825867
 2155      H     11.3548148643     1.8595308010     16.2931569680
 2156      H     16.8088761758     -2.3482657658     10.2754493262
 2157      H     -4.1302863927     11.2066665807     12.9969382591
 2158      H     -10.4229934354     16.6332165163     3.4989925933
 2159      H     -9.4923070206     16.2012167883     -5.7482883602
 2160      H     -15.8526338719     9.4962918307     -6.8258572247
 2161      H     -20.7203123103     4.7536541420     -5.0650902404
 2162      H     -22.2135679966     2.7918534868     -7.9027980557
 2163      H     -25.8730897032     -5.9955673128     -11.9587140521
 2164      H     -20.4190283917     -10.2033638797     -17.9764216939
 2165      H     -18.9265592893     -8.2418202072     -15.1392753460
 2166      H     -27.2332642496     -9.2105739696     0.0350234138
 2167      H     -29.5044694387     -3.4802367776     0.2663752120
 2168      H     -28.0119328499     -1.5187844740     3.1052498820
 2169      H     -23.1442544114     3.2238532148     1.3444828977
 2170      H     -21.8030165396     -2.0741358978     10.3592451983
 2171      H     -21.6517853091     5.1853968873     4.1816292457
 2172      H     -24.0749408262     3.6558529427     10.5917638512
 2173      H     -17.7140067015     10.3602912866     11.6687046822
 2174      H     -23.9427801999     -4.8860700690     6.2908378078
 2175      H     -23.2117623960     -8.9067867132     9.7643208778
 2176      H     -22.2506653333     -13.3399605197     2.7581526357
 2177      H     -20.0098707921     -15.0691236331     0.2856881261
 2178      H     -11.2897463060     -3.6076950470     16.8663523381
 2179      H     3.0887112089     -17.2987776875     -19.3770600374
 2180      H     9.4490380601     -10.5938527299     -18.2994911729
 2181      H     2.2256446027     -4.7353030664     -18.5501558853
 2182      H     8.5864669034     1.9683003123     -17.4726762330
 2183      H     14.8792857701     -3.4574146581     -7.9752693884
 2184      H     13.0754332217     -2.5813899212     9.9095779870
 2185      H     0.4191032959     -19.2171989415     -14.1570387268
 2186      H     -4.9339271346     -19.5504996593     -14.6802029850
 2187      H     -22.1398260596     -5.7631867537     -11.5940322138
 2188      H     -16.7833202867     9.9282915587     2.4214237288
 2189      H     -9.4833168233     10.8733658629     12.4737740009
 2190      H     13.1865636300     4.9969624064     -4.4419561829
 ----------------------------------------------------------------
 Nuclear Repulsion Energy =     5889896.53971770 hartrees
 There are      296 alpha and      296 beta electrons
 Total job time:  58743.60s(wall), 2103697.53s(cpu) 
 Sat Jun 26 02:49:56 2021

        *************************************************************
        *                                                           *
        *  Thank you very much for using Q-Chem.  Have a nice day.  *
        *                                                           *
        *************************************************************


